LAMMPS data file via write_data, version 29 Oct 2020, timestep = 492

6640 atoms
7130 bonds
11378 angles
19971 dihedrals
0 impropers

14 atom types
18 bond types
23 angle types
42 dihedral types

11.246593 53.753407 xlo xhi
11.246593 53.753407 ylo yhi
11.246593 53.753407 zlo zhi

Masses # id, mass [g/mol]

 1  12.0100000 # CA (carbon aromatic)
 2   1.0080000 # HA (hydrogen aromatic)
 3  12.0100000 # C  (carbon in carboxyl)
 4  16.0000000 # O  (oxygen)
 5  14.0100000 # N (nitrogen with 1 hydrogen)
 6   1.0080000 # HN (hydrogen on nitrogen)
 7  16.0000000 # OH (protonated carboxyl oxygen)
 8  14.0100000 # NH (nitrogen with 2 hydrogens)
 9   1.0080000 # HO (hydrogen on oxygen)
 10 12.0100000 # LC (crosslinked carbon)
 11 14.0100000 # LN (crosslinked nitrogen)
 12 12.0100000 # CT (terminated carbon on carboxyl group)
 13  1.0080000 # H (free hydrogen for termination)
 14 16.0000000 # OR (reactive oxygen in free hydroxyl)


Pair Coeffs # id, epsilon [kcal/mol], sigma [Angstroms]

 1  0.0860000 3.3996695 # CA
 2  0.0150000 2.5996425 # HA
 3  0.0860000 3.3996695 # C
 4  0.2100000 2.9599219 # O
 5  0.1700000 3.2499985 # N
 6  0.0157000 1.0690785 # HN
 7  0.2104000 3.0664734 # OH
 8  0.1700000 3.2499985 # NH
 9  0.0000000 0.0000000 # HO
 10 0.0860000 3.3996695 # LC
 11 0.1700000 3.2499985 # LN
 12 0.0860000 3.3996695 # CT
 13 0.0157000 1.0690785 # H
 14 0.2104000 3.0664734 # OR


Bond Coeffs # id, K [kcal/mol/Ang^2], r0 [Ang]

 1  harmonic    4.61100000e+02    1.39840000e+00 # CA-CA
 2  harmonic    3.45900000e+02    1.49060000e+00 # CA-C
 3  harmonic    3.45800000e+02    1.08600000e+00 # CA-HA
 4  harmonic    6.37700000e+02    1.21830000e+00 # C-O
 5  harmonic    4.27600000e+02    1.37890000e+00 # LC-LN
 6  harmonic    3.84200000e+02    1.41210000e+00 # N-CA
 7  harmonic    4.03200000e+02    1.01290000e+00 # N-HN
 8  harmonic    4.17900000e+02    1.38590000e+00 # CA-NH
 9  harmonic    4.04600000e+02    1.01210000e+00 # NH-HN 
 10 harmonic    3.45900000e+02    1.49060000e+00 # CA-LC
 11 harmonic    6.37700000e+02    1.21830000e+00 # LC-O
 12 harmonic    3.84200000e+02    1.41210000e+00 # LN-CA
 13 harmonic    4.03200000e+02    1.01290000e+00 # LN-HN
 14 harmonic    4.00100000e+02    1.35130000e+00 # CT-OH
 15 harmonic    3.71400000e+02    9.73000000e-01 # OH-HO
 16 harmonic    3.45900000e+02    1.49060000e+00 # CA-CT
 17 harmonic    6.37700000e+02    1.21830000e+00 # CT-O
 18 harmonic    3.71400000e+02    9.73000000e-01 # OR-HO


Angle Coeffs # id, K [kcal/mol/rad^2], theta0 [degrees], K_UB [kcal/mol/Ang^2], r_UB [Ang]

 1  harmonic    6.66000000e+01    1.20020052e+02 # CA-CA-CA
 2  harmonic    4.82000000e+01    1.19880051e+02 # CA-CA-HA
 3  harmonic    6.87000000e+01    1.22600053e+02 # CA-C-O
 4  harmonic    6.43000000e+01    1.20330052e+02 # CA-CA-C
 5  harmonic    6.77000000e+01    1.15250050e+02 # CA-LC-LN (TMC-side)
 6  harmonic    6.38000000e+01    1.23710053e+02 # LC-LN-CA (MPD-side)
 7  harmonic    4.83000000e+01    1.17550051e+02 # LC-LN-HN
 8  harmonic    7.42000000e+01    1.23050053e+02 # O-LC-LN
 9  harmonic    6.79000000e+01    1.20190052e+02 # N-CA-CA
 10 harmonic    4.76000000e+01    1.16000050e+02 # CA-N-HN
 11 harmonic    6.83000000e+01    1.20950052e+02 # CA-CA-NH
 12 harmonic    4.84000000e+01    1.16070050e+02 # CA-NH-HN
 13 harmonic    7.79000000e+01    1.30250056e+02 # O-C-O (does not exist in protonated monomers)
 14 harmonic    4.01000000e+01    1.15120050e+02 # HN-NH-HN
 15 harmonic    6.87000000e+01    1.22600053e+02 # CA-LC-O
 16 harmonic    6.43000000e+01    1.20330052e+02 # CA-CA-LC
 17 harmonic    6.79000000e+01    1.20190052e+02 # LN-CA-CA
 18 harmonic    4.76000000e+01    1.16000050e+02 # CA-LN-HN
 19 harmonic    6.92000000e+01    1.13450049e+02 # CA-CT-OH
 20 harmonic    4.99000000e+01    1.06550046e+02 # CT-OH-HO
 21 harmonic    7.59000000e+01    1.22100052e+02 # O-CT-OH
 22 harmonic    6.87000000e+01    1.22600053e+02 # CA-CT-O
 23 harmonic    6.43000000e+01    1.20330052e+02 # CA-CA-CT

Dihedral Coeffs # id, K [kcal/mol], n, d [degrees], weighting factor for 1-4 interactions

 1  charmm    3.62500000e+00         2       180         0 # CA-CA-CA-CA
 2  charmm    1.10000000e+00         2       180         0 # CA-CA-CA-HA (improper)
 3  charmm    1.00000000e+00         2       180         0 # CA-CA-C-O
 4  charmm    2.50000000e+00         2       180         0 # CA-LC-LN-CA
 5  charmm    1.05000000e+01         2       180         0 # CA-LC-LN-O
 6  charmm    4.50000000e-01         2       180         0 # LC-LN-CA-CA
 7  multi/harmonic    2.00000000e+00    2.00000000e+00    0.00000000e+00    0.00000000e+00    0.00000000e+00 # O-LC-LN-HN
 8  charmm    1.05000000e+00         2       180         0 # CA-CA-NH-HN
 9  charmm    3.62500000e+00         2       180         0 # CA-CA-CA-C
 10 charmm    3.62500000e+00         2       180         0 # CA-CA-CA-LC
 11 charmm    3.62500000e+00         2       180         0 # CA-CA-CA-HA
 12 charmm    3.62500000e+00         2       180         0 # C-CA-CA-HA
 13 charmm    3.62500000e+00         2       180         0 # LC-CA-CA-HA
 14 charmm    3.62500000e+00         2       180         0 # N-CA-CA-CA
 15 charmm    3.62500000e+00         2       180         0 # LN-CA-CA-CA
 16 charmm    3.62500000e+00         2       180         0 # N-CA-CA-HA
 17 charmm    3.62500000e+00         2       180         0 # LN-CA-CA-HA
 18 charmm    3.62500000e+00         2       180         0 # CA-CA-CA-NH
 19 charmm    3.62500000e+00         2       180         0 # HA-CA-CA-HA
 20 charmm    3.62500000e+00         2       180         0 # HA-CA-CA-NH
 21 charmm    1.10000000e+00         2       180         0 # CA-O-OH-CT (improper) (changed from CA-O-O-C in unprotonated)
 22 charmm    1.10000000e+00         2       180         0 # CA-CA-CA-C (improper)
 23 charmm    1.10000000e+00         2       180         0 # CA-CA-CA-LC (improper)
 24 charmm    1.10000000e+00         2       180         0 # LC-CA-LN-HN (improper)
 25 charmm    1.10000000e+00         2       180         0 # CA-CA-CA-N (improper)
 26 charmm    1.10000000e+00         2       180         0 # CA-CA-CA-LN (improper)
 27 charmm    1.10000000e+00         2       180         0 # CA-CA-CA-NH (improper)
 28 charmm    1.10000000e+00         2       180         0 # CA-HN-NH-HN (improper)
 29 charmm    1.00000000e+00         2       180         0 # CA-CA-LC-O
 30 charmm    1.00000000e+00         2       180         0 # CA-CA-LC-LN
 31 charmm    2.50000000e+00         2       180         0 # CA-LC-LN-HN
 32 charmm    2.50000000e+00         2       180         0 # O-LC-LN-CA
 33 charmm    2.50000000e+00         2       180         0 # O-LC-LN-HN
 34 charmm    4.50000000e-01         2       180         0 # HN-LN-CA-CA
 35 charmm    2.30000000e+00         2       180         0 # CA-CT-OH-HO
 36 multi/harmonic    1.90000000e+00    1.90000000e+00    0.00000000e+00    0.00000000e+00    0.00000000e+00 # O-CT-OH-HO
 37 charmm    4.50000000e-01         2       180         0 # CA-CA-N-HN
 38 charmm    1.00000000e+00         2       180         0 # CA-CA-CT-OH
 39 charmm    1.00000000e+00         2       180         0 # CA-CA-CT-O
 40 charmm    3.62500000e+00         2       180         0 # CA-CA-CA-CT
 41 charmm    3.62500000e+00         2       180         0 # CT-CA-CA-HA
 42 charmm    1.10000000e+00         2       180         0 # CA-CA-CA-CT (improper)

Atoms

4280 1 1 0.0278 13.509986 18.775400 12.890786
137 1 11 -0.2514 19.368900 19.962400 12.258800
6305 1 1 -0.0531 20.914500 15.225886 19.757700
2226 1 6 0.1829 15.809000 18.154886 13.493300
287 1 2 0.0866 19.062300 12.583686 18.775400
281 1 1 -0.0632 18.543600 11.637286 18.952000
1018 1 11 -0.2514 16.603600 15.436000 11.606786
6309 1 2 0.0871 20.177400 15.076386 20.558300
6482 1 1 0.0277 14.529900 16.749286 21.751700
6483 1 1 -0.0531 14.671300 15.351686 21.601300
1407 1 2 0.0866 20.528600 14.647986 12.011286
4285 1 10 0.2266 13.800400 17.822686 13.994200
4277 1 1 -0.0521 12.338386 18.670600 12.101186
139 1 6 0.1829 19.142400 19.279300 11.574500
6488 1 2 0.0871 13.790700 14.784086 21.559500
2456 1 1 0.0078 11.660100 18.296600 17.364500
1402 1 1 -0.0801 21.094200 16.189386 13.293886
6626 1 10 0.2266 21.822000 12.121286 11.524886
5389 1 1 0.0277 11.724086 13.689886 14.509800
6306 1 1 0.0277 20.654000 15.413786 18.355100
6315 1 4 -0.2763 18.184800 15.337686 18.520100
5394 1 2 0.0871 53.631900 15.011686 16.157700
5388 1 1 -0.0531 12.836086 12.153486 16.586000
2221 1 2 0.0866 14.457400 14.921886 14.016900
49 1 2 0.0866 12.619700 20.923186 20.292400
5189 1 4 -0.2763 18.452900 20.626300 18.580600
1373 1 1 -0.0632 20.058900 21.366100 20.993000
293 1 6 0.1829 18.078000 13.307186 20.816100
5190 1 4 -0.2763 17.912600 19.018900 13.614900
4279 1 1 -0.0531 14.443086 19.817200 12.670786
512 1 2 0.0839 20.776200 18.588800 18.859100
2213 1 1 -0.0632 17.219400 14.142286 15.659000
6303 1 1 -0.0531 21.732400 15.623286 17.505200
4289 1 4 -0.2763 12.957900 17.271286 14.723400
2216 1 1 0.0078 17.739000 15.413986 15.807800
2217 1 1 -0.043 17.114400 16.535686 15.334300
2218 1 1 0.0078 15.859200 16.399886 14.678500
6311 1 10 0.2266 19.180800 15.325086 17.823100
5180 1 1 -0.0531 18.738900 20.804200 15.732000
506 1 1 -0.0801 21.714400 19.097800 18.612100
2222 1 11 -0.2514 15.191600 17.499186 14.041700
2223 1 11 -0.2514 18.981900 15.471486 16.480800
2224 1 2 0.0896 17.577300 17.464386 15.561000
6308 1 2 0.0871 21.496300 15.890886 16.474000
5185 1 10 0.2266 19.120800 21.527700 18.076500
2451 1 1 -0.0632 13.787786 16.993586 18.461900
4282 1 2 0.0872 11.708286 17.778700 12.240486
1299 1 11 -0.2514 11.416486 14.236086 12.204700
130 1 1 0.0078 20.291200 20.947600 11.848200
2457 1 2 0.0866 14.686786 16.518286 18.920700
2458 1 2 0.0839 14.977886 18.627586 17.781400
5387 1 1 0.0277 12.790486 11.604786 15.274800
5400 1 4 -0.2763 12.018086 12.747286 19.107500
2215 1 1 -0.0632 15.348100 15.120986 14.513100
5386 1 1 -0.0531 12.320786 12.424286 14.245500
138 1 2 0.0896 21.351400 21.051400 13.746400
4278 1 1 0.0278 14.130186 20.742000 11.648786
2225 1 6 0.1829 19.694000 15.831386 15.835500
5181 1 1 0.0277 18.669900 21.130600 14.388400
5393 1 2 0.0871 13.257486 11.528186 17.299500
6491 1 10 0.2266 15.948700 13.182586 21.131000
3897 1 4 -0.2763 15.041700 13.898100 11.771886
2452 1 1 -0.0801 13.955586 18.199486 17.808800
1301 1 6 0.1829 12.028086 13.456986 11.921300
2220 1 2 0.0839 15.654200 12.969786 14.738800
6493 1 4 -0.2763 12.030700 16.912086 21.786900
5184 1 2 0.0871 18.778700 19.785800 16.023600
291 1 11 -0.2514 17.257000 12.734586 20.778000
2459 1 2 0.0866 13.045400 19.845300 16.707100
2219 1 2 0.0866 17.739300 13.296886 16.059000
2453 1 1 -0.0632 12.923200 18.893000 17.222500
4283 1 2 0.0871 15.217586 20.074100 13.318686
43 1 1 -0.0632 11.934100 20.866186 21.101600
2454 1 1 0.0078 12.571586 16.309086 18.276000
1401 1 1 -0.0632 21.200900 14.912586 12.844886
5186 1 10 0.2266 18.633100 19.980900 13.392100
1022 1 6 0.1829 16.598400 15.484800 12.606086
5392 1 2 0.0871 12.339186 12.043386 13.274900
511 1 2 0.0866 21.484800 18.678900 16.453900
2214 1 1 -0.0801 16.044600 13.995786 14.995500
5391 1 1 0.0277 12.237086 13.386386 16.917100
5396 1 10 0.2266 12.154886 13.747186 18.387700
131 1 1 -0.043 21.280100 21.419500 12.717400
1408 1 2 0.0839 20.293100 16.877486 12.999286
2463 1 6 0.1829 12.522386 15.044886 19.928100
2461 1 11 -0.2514 12.366386 15.009486 18.923900
1379 1 2 0.0866 19.530100 20.517200 20.641300
1490 1 1 0.0078 21.908300 12.814286 21.607400
284 1 1 0.0078 17.610700 11.543086 20.061600
5390 1 1 -0.0531 11.659086 14.098286 15.850800
6492 1 10 0.2266 13.143300 17.475586 21.765300
6486 1 1 0.0277 15.949900 14.688786 21.546000
2455 1 1 -0.043 11.433686 17.039786 17.881300
6495 1 4 -0.2763 14.948500 12.536986 20.913800
6481 1 1 -0.0531 15.751600 17.479186 21.835400
55 1 6 0.1829 13.958400 19.377686 21.411900
53 1 11 -0.2514 13.173500 18.866886 21.796800
6485 1 1 -0.0531 17.123000 15.414586 21.703600
6234 1 2 0.0871 15.016300 12.584100 28.689300
6239 1 4 -0.2763 12.825300 15.947300 28.599100
2495 1 1 -0.0632 16.688400 17.964386 25.140500
1050 1 6 0.1829 13.627300 12.492200 23.541500
5678 1 2 0.0871 21.038600 15.931400 25.138900
2496 1 1 0.0078 15.265400 20.385086 24.913000
6518 1 2 0.0871 12.264800 13.103500 22.585700
1041 1 1 -0.043 16.603600 12.780800 24.845300
2501 1 2 0.0866 17.211300 16.962286 25.337200
6233 1 2 0.0871 18.840000 14.497100 28.807300
4636 1 1 -0.0531 14.066200 20.912500 31.977600
1048 1 2 0.0896 16.817800 13.821700 24.581000
1067 1 1 -0.0632 19.429900 19.206400 26.739800
1507 1 2 0.0866 21.312100 21.640100 31.410500
2502 1 11 -0.2514 18.163300 18.580386 23.286600
1070 1 1 0.0078 19.909300 18.012100 27.378300
1065 1 1 -0.0632 21.585900 19.396800 25.534100
6240 1 4 -0.2763 18.807800 11.916400 28.864400
4828 1 10 0.2266 20.855300 13.241700 31.068800
1074 1 11 -0.2514 19.035100 17.009400 27.970800
2729 1 6 0.1829 13.368800 12.972200 29.375900
1078 1 6 0.1829 19.376500 16.106000 27.660900
6521 1 10 0.2266 13.885600 14.216200 24.652300
5681 1 10 0.2266 19.381500 13.796000 25.488700
6487 1 2 0.0871 15.695400 18.537486 22.053800
1040 1 1 0.0078 17.596600 12.027100 25.477300
6235 1 10 0.2266 13.366900 14.919700 28.873100
5679 1 2 0.0871 20.961700 11.891900 26.730800
1049 1 6 0.1829 19.570400 11.721700 25.666800
2723 1 2 0.0866 11.627200 53.732114 28.818700
2500 1 2 0.0839 15.024600 17.384586 26.440900
2494 1 1 -0.0801 15.453500 18.139086 25.813200
2915 1 1 -0.0632 18.718200 15.319100 31.743400
4644 1 4 -0.2623 18.745400 21.010300 30.183000
2493 1 1 -0.0632 14.805400 19.385586 25.795400
1047 1 11 -0.2514 18.904200 12.492900 25.528500
6237 1 10 0.2266 17.797800 17.093800 28.527700
4635 1 1 0.0278 13.971600 21.312500 30.625100
6516 1 1 0.0277 12.490300 14.599800 24.129100
2894 1 11 -0.2514 11.792300 20.239800 30.333000
2914 1 1 -0.0801 17.546700 16.153400 31.976900
6230 1 1 -0.0531 15.531000 13.502700 28.811200
6525 1 4 -0.2763 14.398200 14.821100 25.528300
2499 1 2 0.0866 13.906000 19.527686 26.417100
4632 1 1 -0.0521 15.187700 21.701700 29.973700
6238 1 4 -0.2763 17.244200 18.167100 28.758200
4832 1 4 -0.2763 21.172000 14.156500 30.367400
5676 1 1 0.0277 20.864400 13.832200 25.793500
4634 1 1 -0.0521 16.483800 20.966000 31.938700
2498 1 1 0.0078 17.068900 18.893086 24.173800
6515 1 1 -0.0531 11.877900 15.727100 24.678300
2913 1 1 -0.0632 16.382800 15.538000 32.501000
1042 1 1 0.0078 15.329300 12.228100 24.687500
2506 1 6 0.1829 19.015800 18.857086 23.602600
6228 1 1 -0.0531 17.725400 14.592400 28.791600
2503 1 11 -0.2514 14.509200 21.575586 24.910700
4633 1 1 0.04 16.407400 21.439000 30.619200
5685 1 4 -0.2763 18.674300 14.760200 25.463600
2921 1 2 0.0866 19.588200 15.673000 31.243700
1073 1 2 0.0866 18.443400 19.566300 26.897700
46 1 1 0.0078 12.046800 19.754086 21.948000
2504 1 2 0.0896 16.864800 20.893186 23.484900
1496 1 2 0.0896 20.397800 12.498386 23.198600
2497 1 1 -0.043 16.416000 20.149686 24.136900
2918 1 1 0.0078 18.650400 13.903300 31.966100
2727 1 11 -0.2514 12.739700 13.706500 29.061000
1046 1 11 -0.2514 14.304100 13.017100 24.113400
1489 1 1 -0.043 20.897100 12.052586 22.315500
2898 1 6 0.1829 12.067200 19.630700 31.084700
6236 1 10 0.2266 17.587000 12.058000 29.000300
1501 1 1 -0.0632 21.352200 20.580300 31.666400
1072 1 2 0.0839 19.921000 20.727800 25.313600
6231 1 1 0.0277 16.933300 13.436800 28.920200
1076 1 2 0.0896 21.554200 16.817200 27.783000
4641 1 10 0.2266 12.778300 21.040300 29.751000
4639 1 2 0.0872 17.348200 20.616200 32.424700
1069 1 1 -0.043 21.247400 17.613400 27.178800
3637 1 2 0.0871 12.356300 53.649514 31.555600
2922 1 11 -0.2514 19.775200 13.122100 31.898800
6226 1 1 -0.0531 15.704900 15.936400 28.801000
6227 1 1 0.0277 17.087300 15.825000 28.750900
1066 1 1 -0.0801 20.261500 19.848300 25.805000
6229 1 1 0.0277 14.905000 14.779200 28.737300
6232 1 2 0.0871 15.264000 16.914300 28.834800
5675 1 1 -0.0531 21.566300 12.726600 26.397400
6519 1 2 0.0871 12.426000 16.314400 25.434600
3643 1 4 -0.2763 14.634400 12.132400 31.588100
6490 1 10 0.2266 18.174300 17.605986 22.318600
4645 1 4 -0.2763 12.621200 21.606800 28.640400
1374 1 1 -0.0801 20.451400 21.359700 22.308600
6484 1 1 0.0277 17.013900 16.830386 21.921900
5673 1 1 -0.0531 21.633800 15.004800 25.468700
2897 1 6 0.1829 53.724214 16.665000 26.768000
2926 1 6 0.1829 19.645200 12.233800 32.343500
4638 1 2 0.0872 15.225000 21.960900 28.902400
2896 1 2 0.0896 12.041000 18.658300 28.100200
4643 1 12 0.2765 17.705000 21.502000 29.798000
6513 1 1 -0.0531 11.758400 13.920900 23.153800
1380 1 2 0.0839 20.122000 20.544900 22.941400
1502 1 1 0.0078 21.606700 17.838600 32.434500
54 1 2 0.0896 53.605714 18.797086 23.627500
2920 1 2 0.0839 17.564600 17.192800 31.754800
2720 1 1 0.0078 11.340900 13.397100 29.203300
6489 1 2 0.0871 18.132900 14.989886 21.716400
6494 1 4 -0.2763 19.231400 17.259486 21.859500
2863 1 2 0.0866 17.238900 17.206900 35.902300
975 1 2 0.0866 21.418400 18.383186 41.846700
2642 1 11 -0.2514 20.471400 17.232800 38.399700
2635 1 1 -0.0632 19.612300 15.327700 39.690900
6326 1 10 0.2266 19.505000 21.073000 34.740200
2099 1 6 0.1829 14.795886 19.583600 37.775900
3630 1 1 0.04 11.667000 12.178300 35.270100
5138 1 4 -0.2763 14.364486 20.037700 40.851200
2643 1 11 -0.2514 18.341200 13.286900 36.185200
3639 1 10 0.2266 14.332000 12.556500 32.637500
1509 1 11 -0.2514 21.512700 16.441900 32.822400
2858 1 1 -0.0801 15.595300 16.020100 36.622800
4125 1 1 0.0278 20.667500 12.935700 35.185700
2639 1 2 0.0866 17.933200 12.532400 38.739500
2087 1 1 -0.0632 17.286786 19.531100 38.097700
2088 1 1 -0.0801 18.603186 19.903600 37.890500
6330 1 4 -0.2763 18.719800 20.148000 34.705300
2090 1 1 0.0078 16.401686 20.389200 38.794900
6324 1 2 0.0871 17.076000 21.791100 35.274700
5131 1 2 0.0872 12.561786 19.718500 37.534800
2093 1 2 0.0866 16.915286 18.652500 37.678100
2094 1 2 0.0839 19.262986 19.373500 37.291100
1739 1 1 -0.0632 15.970200 13.984386 42.809400
3631 1 1 -0.0521 12.783800 12.587200 34.654700
2097 1 11 -0.2514 15.006386 20.011900 38.728300
1511 1 6 0.1829 20.706200 16.206500 33.274500
2916 1 1 0.0078 16.384400 14.160000 32.722400
2795 1 2 0.0866 12.105486 12.666700 42.064900
3634 1 1 0.0278 13.060100 12.184200 33.330700
2864 1 2 0.0839 16.255900 15.493100 37.364400
2095 1 2 0.0866 20.052886 21.438700 38.272400
5129 1 1 -0.0531 12.841786 17.541400 40.144600
2634 1 1 -0.0801 19.017400 14.090800 39.789100
5134 1 10 0.2266 14.160286 19.670100 39.738400
5126 1 1 0.04 11.410186 17.984500 37.752900
2633 1 1 -0.0632 18.528500 13.472000 38.615900
3636 1 2 0.0872 13.621100 12.950400 35.303400
4131 1 10 0.2266 19.219200 12.474100 35.468300
2636 1 1 0.0078 18.776800 13.997200 37.362000
2637 1 1 -0.043 19.423400 15.280800 37.249300
2638 1 1 0.0078 19.753100 15.979300 38.414400
2860 1 1 0.0078 15.301100 17.665600 34.898300
3641 1 4 -0.2623 11.810700 13.537400 37.108100
2862 1 1 0.0078 13.446400 16.192900 35.453900
973 1 2 0.0866 17.160500 18.557886 42.051800
1508 1 11 -0.2514 20.444300 21.165000 33.740700
5133 1 2 0.0871 13.552486 17.294300 41.015800
2645 1 6 0.1829 17.335600 13.289300 35.996400
5125 1 1 -0.0521 12.347386 18.903700 38.180400
5647 1 2 0.0871 20.458500 13.340386 42.872700
4642 1 10 0.2266 15.248300 19.909600 33.903100
974 1 2 0.0839 19.229400 18.055586 40.763200
2641 1 2 0.0866 19.766200 15.862800 40.615400
2865 1 2 0.0866 13.850900 14.872000 37.125800
1745 1 2 0.0866 16.524800 14.285686 41.994400
4130 1 2 0.0871 20.105100 14.901600 34.423600
5128 1 1 0.0278 13.070886 18.712700 39.348600
1510 1 2 0.0896 20.845900 18.565000 34.323100
5130 1 1 0.0278 11.852686 16.593300 39.746800
968 1 1 -0.0801 19.296700 18.382786 41.841100
1503 1 1 -0.043 21.067600 18.830100 33.297700
2861 1 1 -0.043 13.941500 17.317500 34.770400
2868 1 2 0.0896 13.290000 17.847200 34.096300
2644 1 2 0.0896 19.569700 15.790300 36.338200
2869 1 6 0.1829 16.443100 18.388800 33.313200
2640 1 2 0.0839 18.779800 13.712500 40.803100
3640 1 12 0.2765 11.380300 12.504800 36.683600
2857 1 1 -0.0632 16.147000 17.003000 35.771000
4637 1 1 0.0278 15.262100 20.616900 32.577300
6040 1 10 0.2266 21.423900 17.673400 37.432800
1744 1 2 0.0839 13.998200 14.187586 41.997600
2866 1 11 -0.2514 12.182800 15.731100 35.103000
2867 1 11 -0.2514 15.876900 18.697200 34.078700
2089 1 1 -0.0632 19.053686 21.131000 38.442400
2859 1 1 -0.0632 14.250600 15.628500 36.473500
2923 1 11 -0.2514 15.089700 13.659600 33.163700
1504 1 1 0.0078 20.899400 20.170300 32.889400
2646 1 6 0.1829 20.350700 17.821500 39.112600
4646 1 4 -0.2763 14.436200 20.312800 34.701600
5940 1 4 -0.2763 12.377800 15.818700 32.805100
969 1 1 -0.0632 20.534200 18.589386 42.433900
1738 1 1 -0.0801 14.576700 14.019486 42.870500
5139 1 4 -0.2763 11.867486 15.463400 41.886100
3633 1 1 -0.0531 12.122800 11.445500 32.607200
2925 1 6 0.1829 14.676600 14.244100 33.855900
4126 1 1 -0.0531 20.977800 14.230100 34.595100
3438 1 2 0.0839 12.883786 11.446386 38.736124
2924 1 2 0.0896 17.284200 12.250800 32.641500
2870 1 6 0.1829 11.484500 15.606000 35.868800
5936 1 10 0.2266 11.698900 15.660000 33.771600
2917 1 1 -0.043 17.405300 13.316100 32.462100
967 1 1 -0.0632 18.134400 18.604186 42.539100
2091 1 1 -0.043 16.865186 21.572100 39.352800
4135 1 4 -0.2763 18.797400 11.428500 35.017400
3437 1 2 0.0866 13.614186 53.738900 41.033104
5135 1 10 0.2266 11.581186 15.397000 40.675500
4122 1 1 -0.0521 21.650500 11.963000 35.194100
4640 1 2 0.0871 13.123200 20.636500 32.539400
6044 1 4 -0.2763 21.703200 16.937100 36.484000
6037 1 2 0.0871 21.805400 19.008000 39.918200
2919 1 2 0.0866 15.498600 16.086300 32.665000
1743 1 2 0.0866 12.805200 13.786186 43.948400
2466 1 1 -0.0801 14.472200 17.186800 44.280300
1742 1 1 0.0078 16.672600 13.705886 44.035400
3814 1 7 -0.379 14.176200 20.064486 50.311900
3803 1 1 -0.0531 14.524200 20.839186 45.319600
2474 1 11 -0.2514 14.327000 15.711400 47.649200
3898 1 4 -0.2763 14.148300 17.320000 49.356900
979 1 6 0.1829 16.413500 20.183386 43.688700
3899 1 7 -0.379 18.023900 12.311500 48.268100
3813 1 4 -0.2763 17.251100 18.804486 46.471700
3810 1 12 0.2765 13.397200 20.730886 49.474300
5760 1 4 -0.2763 20.589900 14.569600 50.411400
3807 1 2 0.0871 14.603300 20.660086 44.244400
1289 1 1 -0.0632 11.732286 14.647886 52.305654
1009 1 1 -0.0632 19.088100 17.904300 51.852600
4276 1 1 0.04 12.057186 19.620400 53.668500
4535 1 1 0.0278 13.200700 11.975486 48.537500
1020 1 2 0.0896 18.986000 14.783400 53.108900
5648 1 2 0.0871 20.471700 16.507586 45.776600
1296 1 2 0.0839 11.786886 14.774686 50.154944
3799 1 1 -0.0521 13.085500 21.599886 47.159600
1019 1 11 -0.2514 20.905600 16.297900 51.842400
1295 1 2 0.0866 12.682986 14.237586 52.337254
2473 1 2 0.0866 15.718300 15.984000 45.416500
3894 1 10 0.2266 14.481900 16.223600 48.978700
5756 1 10 0.2266 21.333300 15.283300 51.042600
4544 1 4 -0.2763 15.250400 11.635286 47.443400
4540 1 10 0.2266 14.167500 12.133386 47.374200
5642 1 1 0.0277 20.285700 14.792886 44.391800
3815 1 9 0.2886 14.868800 19.651786 49.813200
5653 1 4 -0.2763 18.643600 14.636086 46.180500
972 1 1 0.0078 20.571300 18.964186 43.825300
2465 1 1 -0.0632 13.266800 17.961100 44.269500
970 1 1 0.0078 18.177500 19.127186 43.859700
2477 1 6 0.1829 11.929400 19.873400 45.690700
1741 1 1 -0.043 15.992400 13.383686 45.206800
1740 1 1 0.0078 14.602400 13.234386 45.160500
1748 1 2 0.0896 16.559500 13.073386 46.046000
4532 1 1 -0.0521 13.695400 11.584886 49.827400
2475 1 11 -0.2514 11.465900 19.027800 45.453400
3900 1 9 0.2886 17.231700 12.761100 47.877600
4534 1 1 -0.0531 11.817800 12.285186 48.390600
4538 1 2 0.0871 11.365800 12.462586 47.424300
1011 1 1 -0.0632 17.044200 17.601300 53.043400
3801 1 1 -0.0521 15.059200 20.139286 47.600000
3884 1 1 -0.0521 16.563800 13.414300 51.613100
3885 1 1 0.04 16.879400 13.415400 50.232800
3886 1 1 -0.0521 16.168400 14.283800 49.386600
3887 1 1 0.0278 15.692200 14.427400 52.085400
3888 1 1 -0.0531 15.053800 15.322800 51.203500
3889 1 1 0.0278 15.263400 15.230300 49.853100
978 1 2 0.0896 19.528400 19.343086 45.556700
3891 1 2 0.0872 16.314900 14.159100 48.285300
3892 1 2 0.0871 14.421800 16.042900 51.582000
1017 1 2 0.0866 16.084700 18.005300 53.343300
3800 1 1 0.04 13.864700 20.763686 48.043300
3895 1 12 0.2765 17.922300 12.524900 49.609900
1014 1 1 0.0078 17.467200 16.328500 53.344400
1737 1 1 -0.0632 13.895600 13.706686 44.018900
2478 1 6 0.1829 14.820800 14.846800 47.366200
977 1 11 -0.2514 16.947000 19.650886 44.410200
4275 1 1 -0.0521 12.941786 20.678700 53.474600
3804 1 1 0.0278 15.398600 20.183986 46.253200
1010 1 1 -0.0801 17.833200 18.332400 52.255900
1233 1 1 -0.0632 21.704400 19.737000 48.108364
1016 1 2 0.0839 17.454800 19.276800 51.908000
4281 1 2 0.0872 12.758186 21.422600 52.731800
1746 1 11 -0.2514 18.082900 13.819886 44.088100
3802 1 1 0.0278 13.338400 21.510086 45.815000
4537 1 2 0.0872 14.817500 11.454186 49.967500
4531 1 1 0.04 12.766700 11.523886 50.925300
1015 1 2 0.0866 19.755300 18.642200 51.330400
5652 1 10 0.2266 18.977500 14.368286 45.003100
2476 1 2 0.0896 12.157600 17.371700 47.389100
1747 1 11 -0.2514 13.800400 12.885186 46.268200
127 1 1 -0.0632 20.190400 21.418100 53.021814
3806 1 2 0.0872 15.676200 19.695786 48.307400
1749 1 6 0.1829 12.922400 13.339886 46.241100
976 1 11 -0.2514 21.755200 18.994486 44.506900
971 1 1 -0.043 19.418400 19.205286 44.549300
1012 1 1 0.0078 19.559700 16.627200 52.193400
3890 1 2 0.0872 17.031200 12.739100 52.322300
5643 1 1 -0.0531 20.917200 15.995786 44.887200
2467 1 1 -0.0632 14.771300 16.524200 45.487500
2468 1 1 0.0078 12.467000 18.059600 45.380300
2470 1 1 0.0078 13.890200 16.460500 46.524000
3809 1 10 0.2266 16.556400 19.430586 45.728200
3896 1 4 -0.2623 18.665400 11.993100 50.369000
1013 1 1 -0.043 18.680600 15.736400 52.862900
2469 1 1 -0.043 12.769400 17.255900 46.480300
1236 1 1 0.0078 21.807100 21.037200 48.714014
3893 1 10 0.2266 15.669100 14.637700 53.561000
1239 1 2 0.0866 21.138600 19.521800 47.215554
3760 1 4 -0.2623 20.540086 11.394486 44.187144
1021 1 6 0.1829 21.682600 16.876100 52.261100
133 1 2 0.0866 19.396700 21.056800 52.357304
3575 1 4 -0.2763 19.106200 21.182100 47.785124
5641 1 1 -0.0531 20.923700 14.156986 43.319300
4530 1 1 -0.0521 11.437100 11.781686 50.729800
2472 1 2 0.0839 15.144800 17.247300 43.373100
3093 1 6 0.1829 14.464186 21.911600 52.088600
3811 1 4 -0.2623 12.678000 21.597286 50.019200
3763 1 7 -0.379 20.367186 11.488686 46.416144
2471 1 2 0.0866 12.993600 18.481000 43.337100
1290 1 1 -0.0801 53.728200 15.000186 51.040414
3087 1 2 0.0866 16.285186 21.646900 50.386100
6630 1 4 -0.2763 20.713300 12.418886 53.678000
1750 1 6 0.1829 18.386500 14.037186 43.161200
4924 1 1 0.0278 20.271786 26.943500 11.279586
4675 1 10 0.2266 16.689300 25.289300 20.835100
3666 1 1 0.0278 16.327200 32.197900 18.181900
3671 1 2 0.0871 15.600700 31.758400 16.223800
1828 1 2 0.0839 13.445600 30.388100 18.705300
6020 1 1 -0.0531 11.685500 26.581700 14.500386
6021 1 1 0.0277 11.999000 26.553900 15.871686
1261 1 1 -0.0632 15.296400 23.828600 16.072100
1816 1 11 -0.2514 20.391100 30.590000 17.050400
5183 1 2 0.0871 18.495900 22.609600 12.856400
1272 1 2 0.0896 16.805500 26.440600 17.492400
1263 1 1 -0.0632 14.978900 23.850600 18.511900
1265 1 1 -0.043 16.276700 25.559100 17.450500
2849 1 2 0.0866 20.535800 26.125900 20.415800
1267 1 2 0.0866 15.212000 23.363400 15.097900
3667 1 1 -0.0531 15.804000 32.528000 16.980400
6023 1 2 0.0871 11.947200 25.282600 17.654486
808 1 11 -0.2514 13.008300 28.914200 16.071186
1317 1 1 -0.0632 16.697986 28.467500 13.480086
1269 1 2 0.0866 14.665000 23.374600 19.491300
6342 1 10 0.2266 12.226900 26.365486 21.608100
1270 1 11 -0.2514 15.835800 25.726600 19.831600
1264 1 1 0.0078 16.062800 24.942300 16.214400
5178 1 1 -0.0531 18.523700 22.454000 13.945700
4925 1 1 -0.0531 19.674986 28.156800 11.670286
812 1 6 0.1829 13.710900 29.496500 16.662786
1327 1 11 -0.2514 18.095186 30.385100 13.293286
2851 1 2 0.0866 18.119600 28.563300 17.692000
2843 1 1 -0.0632 20.040800 27.084100 20.213500
2852 1 11 -0.2514 17.846000 30.669700 19.322000
1324 1 2 0.0839 15.264786 26.861800 13.485986
6030 1 4 -0.2763 13.559200 27.199500 17.386986
1274 1 6 0.1829 15.517500 26.683900 19.921700
2845 1 1 -0.0632 18.491600 28.335300 18.712900
4929 1 2 0.0871 18.783186 28.529600 53.699600
6026 1 10 0.2266 12.889100 27.609400 16.476786
1383 1 11 -0.2514 20.022700 22.397000 18.735600
1329 1 6 0.1829 17.694986 31.225600 13.693086
800 1 1 -0.0801 11.904900 31.375500 13.463886
5050 1 10 0.2266 21.557600 29.898700 16.808800
1328 1 2 0.0896 16.393286 31.304200 11.633186
5187 1 10 0.2266 17.870400 24.831000 14.387800
2844 1 1 -0.0801 19.335900 27.214000 19.005500
5188 1 4 -0.2763 18.454900 25.399100 13.485000
3676 1 4 -0.2763 16.106100 29.930500 18.059400
801 1 1 -0.0632 12.686700 30.584800 14.294686
1824 1 1 0.0078 11.367500 28.496486 20.644100
1815 1 2 0.0866 18.608900 31.876400 15.870000
2847 1 1 -0.043 19.123200 29.248200 20.908300
1812 1 1 0.0078 20.272600 31.942600 17.148500
4679 1 4 -0.2763 17.317800 24.220800 20.742900
3672 1 10 0.2266 16.647100 30.832800 18.620200
4288 1 4 -0.2763 15.765886 22.280600 12.379686
804 1 1 0.0078 12.128400 29.664500 15.150186
2854 1 2 0.0896 19.083000 30.063600 21.616900
5176 1 1 -0.0531 18.463400 23.187500 16.225100
1376 1 1 0.0078 20.422500 22.414000 20.107300
1266 1 1 0.0078 15.632500 25.105900 18.608200
2850 1 2 0.0839 19.373900 26.417700 18.360200
6024 1 2 0.0871 11.948000 27.412800 13.927786
5177 1 1 0.0277 18.342000 23.469700 14.880200
1262 1 1 -0.0801 14.721800 23.268500 17.242000
4935 1 4 -0.2763 20.101786 31.139900 13.735186
1820 1 6 0.1829 19.560000 29.974400 17.104000
2856 1 6 0.1829 18.384400 31.490900 19.522600
1318 1 1 -0.0801 15.505386 27.845200 13.087886
1319 1 1 -0.0632 14.624786 28.522500 12.198486
1322 1 1 0.0078 14.875886 29.749000 11.673686
1323 1 2 0.0866 17.337486 28.116500 14.228186
1320 1 1 0.0078 17.018786 29.625700 12.830186
4931 1 10 0.2266 19.438686 30.279900 13.173786
1385 1 6 0.1829 20.639700 22.815500 18.065100
5182 1 2 0.0871 18.355800 23.892500 17.035100
1821 1 1 -0.0632 12.521400 29.199886 20.213100
1377 1 1 -0.043 21.205400 23.419700 20.625800