LAMMPS data file via write_data, version 29 Oct 2020, timestep = 492

6640 atoms
7130 bonds
11378 angles
19971 dihedrals
0 impropers

14 atom types
18 bond types
23 angle types
42 dihedral types

11.246593 53.753407 xlo xhi
11.246593 53.753407 ylo yhi
11.246593 53.753407 zlo zhi

Masses # id, mass [g/mol]

 1  12.0100000 # CA (carbon aromatic)
 2   1.0080000 # HA (hydrogen aromatic)
 3  12.0100000 # C  (carbon in carboxyl)
 4  16.0000000 # O  (oxygen)
 5  14.0100000 # N (nitrogen with 1 hydrogen)
 6   1.0080000 # HN (hydrogen on nitrogen)
 7  16.0000000 # OH (protonated carboxyl oxygen)
 8  14.0100000 # NH (nitrogen with 2 hydrogens)
 9   1.0080000 # HO (hydrogen on oxygen)
 10 12.0100000 # LC (crosslinked carbon)
 11 14.0100000 # LN (crosslinked nitrogen)
 12 12.0100000 # CT (terminated carbon on carboxyl group)
 13  1.0080000 # H (free hydrogen for termination)
 14 16.0000000 # OR (reactive oxygen in free hydroxyl)


Pair Coeffs # id, epsilon [kcal/mol], sigma [Angstroms]

 1  0.0860000 3.3996695 # CA
 2  0.0150000 2.5996425 # HA
 3  0.0860000 3.3996695 # C
 4  0.2100000 2.9599219 # O
 5  0.1700000 3.2499985 # N
 6  0.0157000 1.0690785 # HN
 7  0.2104000 3.0664734 # OH
 8  0.1700000 3.2499985 # NH
 9  0.0000000 0.0000000 # HO
 10 0.0860000 3.3996695 # LC
 11 0.1700000 3.2499985 # LN
 12 0.0860000 3.3996695 # CT
 13 0.0157000 1.0690785 # H
 14 0.2104000 3.0664734 # OR


Bond Coeffs # id, K [kcal/mol/Ang^2], r0 [Ang]

 1  harmonic    4.61100000e+02    1.39840000e+00 # CA-CA
 2  harmonic    3.45900000e+02    1.49060000e+00 # CA-C
 3  harmonic    3.45800000e+02    1.08600000e+00 # CA-HA
 4  harmonic    6.37700000e+02    1.21830000e+00 # C-O
 5  harmonic    4.27600000e+02    1.37890000e+00 # LC-LN
 6  harmonic    3.84200000e+02    1.41210000e+00 # N-CA
 7  harmonic    4.03200000e+02    1.01290000e+00 # N-HN
 8  harmonic    4.17900000e+02    1.38590000e+00 # CA-NH
 9  harmonic    4.04600000e+02    1.01210000e+00 # NH-HN 
 10 harmonic    3.45900000e+02    1.49060000e+00 # CA-LC
 11 harmonic    6.37700000e+02    1.21830000e+00 # LC-O
 12 harmonic    3.84200000e+02    1.41210000e+00 # LN-CA
 13 harmonic    4.03200000e+02    1.01290000e+00 # LN-HN
 14 harmonic    4.00100000e+02    1.35130000e+00 # CT-OH
 15 harmonic    3.71400000e+02    9.73000000e-01 # OH-HO
 16 harmonic    3.45900000e+02    1.49060000e+00 # CA-CT
 17 harmonic    6.37700000e+02    1.21830000e+00 # CT-O
 18 harmonic    3.71400000e+02    9.73000000e-01 # OR-HO


Angle Coeffs # id, K [kcal/mol/rad^2], theta0 [degrees], K_UB [kcal/mol/Ang^2], r_UB [Ang]

 1  harmonic    6.66000000e+01    1.20020052e+02 # CA-CA-CA
 2  harmonic    4.82000000e+01    1.19880051e+02 # CA-CA-HA
 3  harmonic    6.87000000e+01    1.22600053e+02 # CA-C-O
 4  harmonic    6.43000000e+01    1.20330052e+02 # CA-CA-C
 5  harmonic    6.77000000e+01    1.15250050e+02 # CA-LC-LN (TMC-side)
 6  harmonic    6.38000000e+01    1.23710053e+02 # LC-LN-CA (MPD-side)
 7  harmonic    4.83000000e+01    1.17550051e+02 # LC-LN-HN
 8  harmonic    7.42000000e+01    1.23050053e+02 # O-LC-LN
 9  harmonic    6.79000000e+01    1.20190052e+02 # N-CA-CA
 10 harmonic    4.76000000e+01    1.16000050e+02 # CA-N-HN
 11 harmonic    6.83000000e+01    1.20950052e+02 # CA-CA-NH
 12 harmonic    4.84000000e+01    1.16070050e+02 # CA-NH-HN
 13 harmonic    7.79000000e+01    1.30250056e+02 # O-C-O (does not exist in protonated monomers)
 14 harmonic    4.01000000e+01    1.15120050e+02 # HN-NH-HN
 15 harmonic    6.87000000e+01    1.22600053e+02 # CA-LC-O
 16 harmonic    6.43000000e+01    1.20330052e+02 # CA-CA-LC
 17 harmonic    6.79000000e+01    1.20190052e+02 # LN-CA-CA
 18 harmonic    4.76000000e+01    1.16000050e+02 # CA-LN-HN
 19 harmonic    6.92000000e+01    1.13450049e+02 # CA-CT-OH
 20 harmonic    4.99000000e+01    1.06550046e+02 # CT-OH-HO
 21 harmonic    7.59000000e+01    1.22100052e+02 # O-CT-OH
 22 harmonic    6.87000000e+01    1.22600053e+02 # CA-CT-O
 23 harmonic    6.43000000e+01    1.20330052e+02 # CA-CA-CT

Dihedral Coeffs # id, K [kcal/mol], n, d [degrees], weighting factor for 1-4 interactions

 1  charmm    3.62500000e+00         2       180         0 # CA-CA-CA-CA
 2  charmm    1.10000000e+00         2       180         0 # CA-CA-CA-HA (improper)
 3  charmm    1.00000000e+00         2       180         0 # CA-CA-C-O
 4  charmm    2.50000000e+00         2       180         0 # CA-LC-LN-CA
 5  charmm    1.05000000e+01         2       180         0 # CA-LC-LN-O
 6  charmm    4.50000000e-01         2       180         0 # LC-LN-CA-CA
 7  multi/harmonic    2.00000000e+00    2.00000000e+00    0.00000000e+00    0.00000000e+00    0.00000000e+00 # O-LC-LN-HN
 8  charmm    1.05000000e+00         2       180         0 # CA-CA-NH-HN
 9  charmm    3.62500000e+00         2       180         0 # CA-CA-CA-C
 10 charmm    3.62500000e+00         2       180         0 # CA-CA-CA-LC
 11 charmm    3.62500000e+00         2       180         0 # CA-CA-CA-HA
 12 charmm    3.62500000e+00         2       180         0 # C-CA-CA-HA
 13 charmm    3.62500000e+00         2       180         0 # LC-CA-CA-HA
 14 charmm    3.62500000e+00         2       180         0 # N-CA-CA-CA
 15 charmm    3.62500000e+00         2       180         0 # LN-CA-CA-CA
 16 charmm    3.62500000e+00         2       180         0 # N-CA-CA-HA
 17 charmm    3.62500000e+00         2       180         0 # LN-CA-CA-HA
 18 charmm    3.62500000e+00         2       180         0 # CA-CA-CA-NH
 19 charmm    3.62500000e+00         2       180         0 # HA-CA-CA-HA
 20 charmm    3.62500000e+00         2       180         0 # HA-CA-CA-NH
 21 charmm    1.10000000e+00         2       180         0 # CA-O-OH-CT (improper) (changed from CA-O-O-C in unprotonated)
 22 charmm    1.10000000e+00         2       180         0 # CA-CA-CA-C (improper)
 23 charmm    1.10000000e+00         2       180         0 # CA-CA-CA-LC (improper)
 24 charmm    1.10000000e+00         2       180         0 # LC-CA-LN-HN (improper)
 25 charmm    1.10000000e+00         2       180         0 # CA-CA-CA-N (improper)
 26 charmm    1.10000000e+00         2       180         0 # CA-CA-CA-LN (improper)
 27 charmm    1.10000000e+00         2       180         0 # CA-CA-CA-NH (improper)
 28 charmm    1.10000000e+00         2       180         0 # CA-HN-NH-HN (improper)
 29 charmm    1.00000000e+00         2       180         0 # CA-CA-LC-O
 30 charmm    1.00000000e+00         2       180         0 # CA-CA-LC-LN
 31 charmm    2.50000000e+00         2       180         0 # CA-LC-LN-HN
 32 charmm    2.50000000e+00         2       180         0 # O-LC-LN-CA
 33 charmm    2.50000000e+00         2       180         0 # O-LC-LN-HN
 34 charmm    4.50000000e-01         2       180         0 # HN-LN-CA-CA
 35 charmm    2.30000000e+00         2       180         0 # CA-CT-OH-HO
 36 multi/harmonic    1.90000000e+00    1.90000000e+00    0.00000000e+00    0.00000000e+00    0.00000000e+00 # O-CT-OH-HO
 37 charmm    4.50000000e-01         2       180         0 # CA-CA-N-HN
 38 charmm    1.00000000e+00         2       180         0 # CA-CA-CT-OH
 39 charmm    1.00000000e+00         2       180         0 # CA-CA-CT-O
 40 charmm    3.62500000e+00         2       180         0 # CA-CA-CA-CT
 41 charmm    3.62500000e+00         2       180         0 # CT-CA-CA-HA
 42 charmm    1.10000000e+00         2       180         0 # CA-CA-CA-CT (improper)

Atoms

4280 1 1 0.0278 56.0168 18.7754 55.3976
137 1 11 -0.2514 19.3689 19.9624 12.2588
6305 1 1 -0.0531 20.9145 57.7327 19.7577
2226 1 6 0.1829 15.809 60.6617 13.4933
287 1 2 0.0866 19.0623 55.0905 18.7754
281 1 1 -0.0632 18.5436 54.1441 18.952
1018 1 11 -0.2514 16.6036 15.436 54.1136
6309 1 2 0.0871 20.1774 57.5832 20.5583
6482 1 1 0.0277 14.5299 59.2561 21.7517
6483 1 1 -0.0531 14.6713 57.8585 21.6013
1407 1 2 0.0866 20.5286 57.1548 54.5181
4285 1 10 0.2266 13.8004 60.3295 13.9942
4277 1 1 -0.0521 54.8452 18.6706 54.608
139 1 6 0.1829 19.1424 19.2793 11.5745
6488 1 2 0.0871 13.7907 57.2909 21.5595
2456 1 1 0.0078 11.6601 18.2966 17.3645
1402 1 1 -0.0801 21.0942 58.6962 55.8007
6626 1 10 0.2266 21.822 54.6281 54.0317
5389 1 1 0.0277 54.2309 56.1967 14.5098
6306 1 1 0.0277 20.654 57.9206 18.3551
6315 1 4 -0.2763 18.1848 57.8445 18.5201
5394 1 2 0.0871 53.6319 57.5185 16.1577
5388 1 1 -0.0531 55.3429 54.6603 16.586
2221 1 2 0.0866 14.4574 57.4287 14.0169
49 1 2 0.0866 12.6197 63.43 20.2924
5189 1 4 -0.2763 18.4529 20.6263 18.5806
1373 1 1 -0.0632 20.0589 21.3661 20.993
293 1 6 0.1829 18.078 55.814 20.8161
5190 1 4 -0.2763 17.9126 19.0189 13.6149
4279 1 1 -0.0531 56.9499 19.8172 55.1776
512 1 2 0.0839 20.7762 18.5888 18.8591
2213 1 1 -0.0632 17.2194 56.6491 15.659
6303 1 1 -0.0531 21.7324 58.1301 17.5052
4289 1 4 -0.2763 12.9579 59.7781 14.7234
2216 1 1 0.0078 17.739 57.9208 15.8078
2217 1 1 -0.043 17.1144 59.0425 15.3343
2218 1 1 0.0078 15.8592 58.9067 14.6785
6311 1 10 0.2266 19.1808 57.8319 17.8231
5180 1 1 -0.0531 18.7389 20.8042 15.732
506 1 1 -0.0801 21.7144 19.0978 18.6121
2222 1 11 -0.2514 15.1916 60.006 14.0417
2223 1 11 -0.2514 18.9819 57.9783 16.4808
2224 1 2 0.0896 17.5773 59.9712 15.561
6308 1 2 0.0871 21.4963 58.3977 16.474
5185 1 10 0.2266 19.1208 21.5277 18.0765
2451 1 1 -0.0632 56.2946 59.5004 18.4619
4282 1 2 0.0872 54.2151 17.7787 54.7473
1299 1 11 -0.2514 53.9233 56.7429 12.2047
130 1 1 0.0078 20.2912 20.9476 11.8482
2457 1 2 0.0866 57.1936 59.0251 18.9207
2458 1 2 0.0839 57.4847 61.1344 17.7814
5387 1 1 0.0277 55.2973 54.1116 15.2748
5400 1 4 -0.2763 54.5249 55.2541 19.1075
2215 1 1 -0.0632 15.3481 57.6278 14.5131
5386 1 1 -0.0531 54.8276 54.9311 14.2455
138 1 2 0.0896 21.3514 21.0514 13.7464
4278 1 1 0.0278 56.637 20.742 54.1556
2225 1 6 0.1829 19.694 58.3382 15.8355
5181 1 1 0.0277 18.6699 21.1306 14.3884
5393 1 2 0.0871 55.7643 54.035 17.2995
6491 1 10 0.2266 15.9487 55.6894 21.131
3897 1 4 -0.2763 15.0417 13.8981 54.2787
2452 1 1 -0.0801 56.4624 60.7063 17.8088
1301 1 6 0.1829 54.5349 55.9638 11.9213
2220 1 2 0.0839 15.6542 55.4766 14.7388
6493 1 4 -0.2763 12.0307 59.4189 21.7869
5184 1 2 0.0871 18.7787 19.7858 16.0236
291 1 11 -0.2514 17.257 55.2414 20.778
2459 1 2 0.0866 13.0454 19.8453 16.7071
2219 1 2 0.0866 17.7393 55.8037 16.059
2453 1 1 -0.0632 12.9232 18.893 17.2225
4283 1 2 0.0871 57.7244 20.0741 55.8255
43 1 1 -0.0632 11.9341 63.373 21.1016
2454 1 1 0.0078 55.0784 58.8159 18.276
1401 1 1 -0.0632 21.2009 57.4194 55.3517
5186 1 10 0.2266 18.6331 19.9809 13.3921
1022 1 6 0.1829 16.5984 15.4848 55.1129
5392 1 2 0.0871 54.846 54.5502 13.2749
511 1 2 0.0866 21.4848 18.6789 16.4539
2214 1 1 -0.0801 16.0446 56.5026 14.9955
5391 1 1 0.0277 54.7439 55.8932 16.9171
5396 1 10 0.2266 54.6617 56.254 18.3877
131 1 1 -0.043 21.2801 21.4195 12.7174
1408 1 2 0.0839 20.2931 59.3843 55.5061
2463 1 6 0.1829 55.0292 57.5517 19.9281
2461 1 11 -0.2514 54.8732 57.5163 18.9239
1379 1 2 0.0866 19.5301 20.5172 20.6413
1490 1 1 0.0078 21.9083 55.3211 21.6074
284 1 1 0.0078 17.6107 54.0499 20.0616
5390 1 1 -0.0531 54.1659 56.6051 15.8508
6492 1 10 0.2266 13.1433 59.9824 21.7653
6486 1 1 0.0277 15.9499 57.1956 21.546
2455 1 1 -0.043 53.9405 59.5466 17.8813
6495 1 4 -0.2763 14.9485 55.0438 20.9138
6481 1 1 -0.0531 15.7516 59.986 21.8354
55 1 6 0.1829 13.9584 61.8845 21.4119
53 1 11 -0.2514 13.1735 61.3737 21.7968
6485 1 1 -0.0531 17.123 57.9214 21.7036
6234 1 2 0.0871 15.0163 12.5841 28.6893
6239 1 4 -0.2763 12.8253 15.9473 28.5991
2495 1 1 -0.0632 16.6884 60.4712 25.1405
1050 1 6 0.1829 13.6273 12.4922 23.5415
5678 1 2 0.0871 21.0386 15.9314 25.1389
2496 1 1 0.0078 15.2654 62.8919 24.913
6518 1 2 0.0871 12.2648 13.1035 22.5857
1041 1 1 -0.043 16.6036 12.7808 24.8453
2501 1 2 0.0866 17.2113 59.4691 25.3372
6233 1 2 0.0871 18.84 14.4971 28.8073
4636 1 1 -0.0531 14.0662 20.9125 31.9776
1048 1 2 0.0896 16.8178 13.8217 24.581
1067 1 1 -0.0632 19.4299 19.2064 26.7398
1507 1 2 0.0866 21.3121 21.6401 31.4105
2502 1 11 -0.2514 18.1633 61.0872 23.2866
1070 1 1 0.0078 19.9093 18.0121 27.3783
1065 1 1 -0.0632 21.5859 19.3968 25.5341
6240 1 4 -0.2763 18.8078 11.9164 28.8644
4828 1 10 0.2266 20.8553 13.2417 31.0688
1074 1 11 -0.2514 19.0351 17.0094 27.9708
2729 1 6 0.1829 13.3688 12.9722 29.3759
1078 1 6 0.1829 19.3765 16.106 27.6609
6521 1 10 0.2266 13.8856 14.2162 24.6523
5681 1 10 0.2266 19.3815 13.796 25.4887
6487 1 2 0.0871 15.6954 61.0443 22.0538
1040 1 1 0.0078 17.5966 12.0271 25.4773
6235 1 10 0.2266 13.3669 14.9197 28.8731
5679 1 2 0.0871 20.9617 11.8919 26.7308
1049 1 6 0.1829 19.5704 11.7217 25.6668
2723 1 2 0.0866 11.6272 11.2253 28.8187
2500 1 2 0.0839 15.0246 59.8914 26.4409
2494 1 1 -0.0801 15.4535 60.6459 25.8132
2915 1 1 -0.0632 18.7182 15.3191 31.7434
4644 1 4 -0.2623 18.7454 21.0103 30.183
2493 1 1 -0.0632 14.8054 61.8924 25.7954
1047 1 11 -0.2514 18.9042 12.4929 25.5285
6237 1 10 0.2266 17.7978 17.0938 28.5277
4635 1 1 0.0278 13.9716 21.3125 30.6251
6516 1 1 0.0277 12.4903 14.5998 24.1291
2894 1 11 -0.2514 11.7923 20.2398 30.333
2914 1 1 -0.0801 17.5467 16.1534 31.9769
6230 1 1 -0.0531 15.531 13.5027 28.8112
6525 1 4 -0.2763 14.3982 14.8211 25.5283
2499 1 2 0.0866 13.906 62.0345 26.4171
4632 1 1 -0.0521 15.1877 21.7017 29.9737
6238 1 4 -0.2763 17.2442 18.1671 28.7582
4832 1 4 -0.2763 21.172 14.1565 30.3674
5676 1 1 0.0277 20.8644 13.8322 25.7935
4634 1 1 -0.0521 16.4838 20.966 31.9387
2498 1 1 0.0078 17.0689 61.3999 24.1738
6515 1 1 -0.0531 11.8779 15.7271 24.6783
2913 1 1 -0.0632 16.3828 15.538 32.501
1042 1 1 0.0078 15.3293 12.2281 24.6875
2506 1 6 0.1829 19.0158 61.3639 23.6026
6228 1 1 -0.0531 17.7254 14.5924 28.7916
2503 1 11 -0.2514 14.5092 64.0824 24.9107
4633 1 1 0.04 16.4074 21.439 30.6192
5685 1 4 -0.2763 18.6743 14.7602 25.4636
2921 1 2 0.0866 19.5882 15.673 31.2437
1073 1 2 0.0866 18.4434 19.5663 26.8977
46 1 1 0.0078 12.0468 62.2609 21.948
2504 1 2 0.0896 16.8648 63.4 23.4849
1496 1 2 0.0896 20.3978 55.0052 23.1986
2497 1 1 -0.043 16.416 62.6565 24.1369
2918 1 1 0.0078 18.6504 13.9033 31.9661
2727 1 11 -0.2514 12.7397 13.7065 29.061
1046 1 11 -0.2514 14.3041 13.0171 24.1134
1489 1 1 -0.043 20.8971 54.5594 22.3155
2898 1 6 0.1829 12.0672 19.6307 31.0847
6236 1 10 0.2266 17.587 12.058 29.0003
1501 1 1 -0.0632 21.3522 20.5803 31.6664
1072 1 2 0.0839 19.921 20.7278 25.3136
6231 1 1 0.0277 16.9333 13.4368 28.9202
1076 1 2 0.0896 21.5542 16.8172 27.783
4641 1 10 0.2266 12.7783 21.0403 29.751
4639 1 2 0.0872 17.3482 20.6162 32.4247
1069 1 1 -0.043 21.2474 17.6134 27.1788
3637 1 2 0.0871 12.3563 11.1427 31.5556
2922 1 11 -0.2514 19.7752 13.1221 31.8988
6226 1 1 -0.0531 15.7049 15.9364 28.801
6227 1 1 0.0277 17.0873 15.825 28.7509
1066 1 1 -0.0801 20.2615 19.8483 25.805
6229 1 1 0.0277 14.905 14.7792 28.7373
6232 1 2 0.0871 15.264 16.9143 28.8348
5675 1 1 -0.0531 21.5663 12.7266 26.3974
6519 1 2 0.0871 12.426 16.3144 25.4346
3643 1 4 -0.2763 14.6344 12.1324 31.5881
6490 1 10 0.2266 18.1743 60.1128 22.3186
4645 1 4 -0.2763 12.6212 21.6068 28.6404
1374 1 1 -0.0801 20.4514 21.3597 22.3086
6484 1 1 0.0277 17.0139 59.3372 21.9219
5673 1 1 -0.0531 21.6338 15.0048 25.4687
2897 1 6 0.1829 11.2174 16.665 26.768
2926 1 6 0.1829 19.6452 12.2338 32.3435
4638 1 2 0.0872 15.225 21.9609 28.9024
2896 1 2 0.0896 12.041 18.6583 28.1002
4643 1 12 0.2765 17.705 21.502 29.798
6513 1 1 -0.0531 11.7584 13.9209 23.1538
1380 1 2 0.0839 20.122 20.5449 22.9414
1502 1 1 0.0078 21.6067 17.8386 32.4345
54 1 2 0.0896 11.0989 61.3039 23.6275
2920 1 2 0.0839 17.5646 17.1928 31.7548
2720 1 1 0.0078 11.3409 13.3971 29.2033
6489 1 2 0.0871 18.1329 57.4967 21.7164
6494 1 4 -0.2763 19.2314 59.7663 21.8595
2863 1 2 0.0866 17.2389 17.2069 35.9023
975 1 2 0.0866 21.4184 60.89 41.8467
2642 1 11 -0.2514 20.4714 17.2328 38.3997
2635 1 1 -0.0632 19.6123 15.3277 39.6909
6326 1 10 0.2266 19.505 21.073 34.7402
2099 1 6 0.1829 57.3027 19.5836 37.7759
3630 1 1 0.04 11.667 12.1783 35.2701
5138 1 4 -0.2763 56.8713 20.0377 40.8512
2643 1 11 -0.2514 18.3412 13.2869 36.1852
3639 1 10 0.2266 14.332 12.5565 32.6375
1509 1 11 -0.2514 21.5127 16.4419 32.8224
2858 1 1 -0.0801 15.5953 16.0201 36.6228
4125 1 1 0.0278 20.6675 12.9357 35.1857
2639 1 2 0.0866 17.9332 12.5324 38.7395
2087 1 1 -0.0632 59.7936 19.5311 38.0977
2088 1 1 -0.0801 61.11 19.9036 37.8905
6330 1 4 -0.2763 18.7198 20.148 34.7053
2090 1 1 0.0078 58.9085 20.3892 38.7949
6324 1 2 0.0871 17.076 21.7911 35.2747
5131 1 2 0.0872 55.0686 19.7185 37.5348
2093 1 2 0.0866 59.4221 18.6525 37.6781
2094 1 2 0.0839 61.7698 19.3735 37.2911
1739 1 1 -0.0632 15.9702 56.4912 42.8094
3631 1 1 -0.0521 12.7838 12.5872 34.6547
2097 1 11 -0.2514 57.5132 20.0119 38.7283
1511 1 6 0.1829 20.7062 16.2065 33.2745
2916 1 1 0.0078 16.3844 14.16 32.7224
2795 1 2 0.0866 54.6123 12.6667 42.0649
3634 1 1 0.0278 13.0601 12.1842 33.3307
2864 1 2 0.0839 16.2559 15.4931 37.3644
2095 1 2 0.0866 62.5597 21.4387 38.2724
5129 1 1 -0.0531 55.3486 17.5414 40.1446
2634 1 1 -0.0801 19.0174 14.0908 39.7891
5134 1 10 0.2266 56.6671 19.6701 39.7384
5126 1 1 0.04 53.917 17.9845 37.7529
2633 1 1 -0.0632 18.5285 13.472 38.6159
3636 1 2 0.0872 13.6211 12.9504 35.3034
4131 1 10 0.2266 19.2192 12.4741 35.4683
2636 1 1 0.0078 18.7768 13.9972 37.362
2637 1 1 -0.043 19.4234 15.2808 37.2493
2638 1 1 0.0078 19.7531 15.9793 38.4144
2860 1 1 0.0078 15.3011 17.6656 34.8983
3641 1 4 -0.2623 11.8107 13.5374 37.1081
2862 1 1 0.0078 13.4464 16.1929 35.4539
973 1 2 0.0866 17.1605 61.0647 42.0518
1508 1 11 -0.2514 20.4443 21.165 33.7407
5133 1 2 0.0871 56.0593 17.2943 41.0158
2645 1 6 0.1829 17.3356 13.2893 35.9964
5125 1 1 -0.0521 54.8542 18.9037 38.1804
5647 1 2 0.0871 20.4585 55.8472 42.8727
4642 1 10 0.2266 15.2483 19.9096 33.9031
974 1 2 0.0839 19.2294 60.5624 40.7632
2641 1 2 0.0866 19.7662 15.8628 40.6154
2865 1 2 0.0866 13.8509 14.872 37.1258
1745 1 2 0.0866 16.5248 56.7925 41.9944
4130 1 2 0.0871 20.1051 14.9016 34.4236
5128 1 1 0.0278 55.5777 18.7127 39.3486
1510 1 2 0.0896 20.8459 18.565 34.3231
5130 1 1 0.0278 54.3595 16.5933 39.7468
968 1 1 -0.0801 19.2967 60.8896 41.8411
1503 1 1 -0.043 21.0676 18.8301 33.2977
2861 1 1 -0.043 13.9415 17.3175 34.7704
2868 1 2 0.0896 13.29 17.8472 34.0963
2644 1 2 0.0896 19.5697 15.7903 36.3382
2869 1 6 0.1829 16.4431 18.3888 33.3132
2640 1 2 0.0839 18.7798 13.7125 40.8031
3640 1 12 0.2765 11.3803 12.5048 36.6836
2857 1 1 -0.0632 16.147 17.003 35.771
4637 1 1 0.0278 15.2621 20.6169 32.5773
6040 1 10 0.2266 21.4239 17.6734 37.4328
1744 1 2 0.0839 13.9982 56.6944 41.9976
2866 1 11 -0.2514 12.1828 15.7311 35.103
2867 1 11 -0.2514 15.8769 18.6972 34.0787
2089 1 1 -0.0632 61.5605 21.131 38.4424
2859 1 1 -0.0632 14.2506 15.6285 36.4735
2923 1 11 -0.2514 15.0897 13.6596 33.1637
1504 1 1 0.0078 20.8994 20.1703 32.8894
2646 1 6 0.1829 20.3507 17.8215 39.1126
4646 1 4 -0.2763 14.4362 20.3128 34.7016
5940 1 4 -0.2763 12.3778 15.8187 32.8051
969 1 1 -0.0632 20.5342 61.0962 42.4339
1738 1 1 -0.0801 14.5767 56.5263 42.8705
5139 1 4 -0.2763 54.3743 15.4634 41.8861
3633 1 1 -0.0531 12.1228 11.4455 32.6072
2925 1 6 0.1829 14.6766 14.2441 33.8559
4126 1 1 -0.0531 20.9778 14.2301 34.5951
3438 1 2 0.0839 55.3906 53.9532 -3.77069
2924 1 2 0.0896 17.2842 12.2508 32.6415
2870 1 6 0.1829 11.4845 15.606 35.8688
5936 1 10 0.2266 11.6989 15.66 33.7716
2917 1 1 -0.043 17.4053 13.3161 32.4621
967 1 1 -0.0632 18.1344 61.111 42.5391
2091 1 1 -0.043 59.372 21.5721 39.3528
4135 1 4 -0.2763 18.7974 11.4285 35.0174
3437 1 2 0.0866 56.121 53.7389 -1.47371
5135 1 10 0.2266 54.088 15.397 40.6755
4122 1 1 -0.0521 21.6505 11.963 35.1941
4640 1 2 0.0871 13.1232 20.6365 32.5394
6044 1 4 -0.2763 21.7032 16.9371 36.484
6037 1 2 0.0871 21.8054 19.008 39.9182
2919 1 2 0.0866 15.4986 16.0863 32.665
1743 1 2 0.0866 12.8052 56.293 43.9484
2466 1 1 -0.0801 14.4722 17.1868 44.2803
1742 1 1 0.0078 16.6726 56.2127 44.0354
3814 1 7 -0.379 14.1762 62.5713 50.3119
3803 1 1 -0.0531 14.5242 63.346 45.3196
2474 1 11 -0.2514 14.327 15.7114 47.6492
3898 1 4 -0.2763 14.1483 17.32 49.3569
979 1 6 0.1829 16.4135 62.6902 43.6887
3899 1 7 -0.379 18.0239 12.3115 48.2681
3813 1 4 -0.2763 17.2511 61.3113 46.4717
3810 1 12 0.2765 13.3972 63.2377 49.4743
5760 1 4 -0.2763 20.5899 14.5696 50.4114
3807 1 2 0.0871 14.6033 63.1669 44.2444
1289 1 1 -0.0632 54.2391 57.1547 9.79884
1009 1 1 -0.0632 19.0881 17.9043 51.8526
4276 1 1 0.04 54.564 19.6204 53.6685
4535 1 1 0.0278 13.2007 54.4823 48.5375
1020 1 2 0.0896 18.986 14.7834 53.1089
5648 1 2 0.0871 20.4717 59.0144 45.7766
1296 1 2 0.0839 54.2937 57.2815 7.64813
3799 1 1 -0.0521 13.0855 64.1067 47.1596
1019 1 11 -0.2514 20.9056 16.2979 51.8424
1295 1 2 0.0866 55.1898 56.7444 9.83044
2473 1 2 0.0866 15.7183 15.984 45.4165
3894 1 10 0.2266 14.4819 16.2236 48.9787
5756 1 10 0.2266 21.3333 15.2833 51.0426
4544 1 4 -0.2763 15.2504 54.1421 47.4434
4540 1 10 0.2266 14.1675 54.6402 47.3742
5642 1 1 0.0277 20.2857 57.2997 44.3918
3815 1 9 0.2886 14.8688 62.1586 49.8132
5653 1 4 -0.2763 18.6436 57.1429 46.1805
972 1 1 0.0078 20.5713 61.471 43.8253
2465 1 1 -0.0632 13.2668 17.9611 44.2695
970 1 1 0.0078 18.1775 61.634 43.8597
2477 1 6 0.1829 11.9294 19.8734 45.6907
1741 1 1 -0.043 15.9924 55.8905 45.2068
1740 1 1 0.0078 14.6024 55.7412 45.1605
1748 1 2 0.0896 16.5595 55.5802 46.046
4532 1 1 -0.0521 13.6954 54.0917 49.8274
2475 1 11 -0.2514 11.4659 19.0278 45.4534
3900 1 9 0.2886 17.2317 12.7611 47.8776
4534 1 1 -0.0531 11.8178 54.792 48.3906
4538 1 2 0.0871 11.3658 54.9694 47.4243
1011 1 1 -0.0632 17.0442 17.6013 53.0434
3801 1 1 -0.0521 15.0592 62.6461 47.6
3884 1 1 -0.0521 16.5638 13.4143 51.6131
3885 1 1 0.04 16.8794 13.4154 50.2328
3886 1 1 -0.0521 16.1684 14.2838 49.3866
3887 1 1 0.0278 15.6922 14.4274 52.0854
3888 1 1 -0.0531 15.0538 15.3228 51.2035
3889 1 1 0.0278 15.2634 15.2303 49.8531
978 1 2 0.0896 19.5284 61.8499 45.5567
3891 1 2 0.0872 16.3149 14.1591 48.2853
3892 1 2 0.0871 14.4218 16.0429 51.582
1017 1 2 0.0866 16.0847 18.0053 53.3433
3800 1 1 0.04 13.8647 63.2705 48.0433
3895 1 12 0.2765 17.9223 12.5249 49.6099
1014 1 1 0.0078 17.4672 16.3285 53.3444
1737 1 1 -0.0632 13.8956 56.2135 44.0189
2478 1 6 0.1829 14.8208 14.8468 47.3662
977 1 11 -0.2514 16.947 62.1577 44.4102
4275 1 1 -0.0521 55.4486 20.6787 53.4746
3804 1 1 0.0278 15.3986 62.6908 46.2532
1010 1 1 -0.0801 17.8332 18.3324 52.2559
1233 1 1 -0.0632 21.7044 19.737 5.60155
1016 1 2 0.0839 17.4548 19.2768 51.908
4281 1 2 0.0872 55.265 21.4226 52.7318
1746 1 11 -0.2514 18.0829 56.3267 44.0881
3802 1 1 0.0278 13.3384 64.0169 45.815
4537 1 2 0.0872 14.8175 53.961 49.9675
4531 1 1 0.04 12.7667 54.0307 50.9253
1015 1 2 0.0866 19.7553 18.6422 51.3304
5652 1 10 0.2266 18.9775 56.8751 45.0031
2476 1 2 0.0896 12.1576 17.3717 47.3891
1747 1 11 -0.2514 13.8004 55.392 46.2682
127 1 1 -0.0632 20.1904 21.4181 10.515
3806 1 2 0.0872 15.6762 62.2026 48.3074
1749 1 6 0.1829 12.9224 55.8467 46.2411
976 1 11 -0.2514 21.7552 61.5013 44.5069
971 1 1 -0.043 19.4184 61.7121 44.5493
1012 1 1 0.0078 19.5597 16.6272 52.1934
3890 1 2 0.0872 17.0312 12.7391 52.3223
5643 1 1 -0.0531 20.9172 58.5026 44.8872
2467 1 1 -0.0632 14.7713 16.5242 45.4875
2468 1 1 0.0078 12.467 18.0596 45.3803
2470 1 1 0.0078 13.8902 16.4605 46.524
3809 1 10 0.2266 16.5564 61.9374 45.7282
3896 1 4 -0.2623 18.6654 11.9931 50.369
1013 1 1 -0.043 18.6806 15.7364 52.8629
2469 1 1 -0.043 12.7694 17.2559 46.4803
1236 1 1 0.0078 21.8071 21.0372 6.2072
3893 1 10 0.2266 15.6691 14.6377 53.561
1239 1 2 0.0866 21.1386 19.5218 4.70874
3760 1 4 -0.2623 63.0469 53.9013 1.68033
1021 1 6 0.1829 21.6826 16.8761 52.2611
133 1 2 0.0866 19.3967 21.0568 9.85049
3575 1 4 -0.2763 19.1062 21.1821 5.27831
5641 1 1 -0.0531 20.9237 56.6638 43.3193
4530 1 1 -0.0521 11.4371 54.2885 50.7298
2472 1 2 0.0839 15.1448 17.2473 43.3731
3093 1 6 0.1829 56.971 21.9116 52.0886
3811 1 4 -0.2623 12.678 64.1041 50.0192
3763 1 7 -0.379 62.874 53.9955 3.90933
2471 1 2 0.0866 12.9936 18.481 43.3371
1290 1 1 -0.0801 53.7282 57.507 8.5336
3087 1 2 0.0866 58.792 21.6469 50.3861
6630 1 4 -0.2763 20.7133 54.9257 53.678
1750 1 6 0.1829 18.3865 56.544 43.1612
4924 1 1 0.0278 62.7786 26.9435 53.7864
4675 1 10 0.2266 16.6893 25.2893 20.8351
3666 1 1 0.0278 16.3272 32.1979 18.1819
3671 1 2 0.0871 15.6007 31.7584 16.2238
1828 1 2 0.0839 13.4456 30.3881 18.7053
6020 1 1 -0.0531 11.6855 26.5817 57.0072
6021 1 1 0.0277 11.999 26.5539 58.3785
1261 1 1 -0.0632 15.2964 23.8286 16.0721
1816 1 11 -0.2514 20.3911 30.59 17.0504
5183 1 2 0.0871 18.4959 22.6096 12.8564
1272 1 2 0.0896 16.8055 26.4406 17.4924
1263 1 1 -0.0632 14.9789 23.8506 18.5119
1265 1 1 -0.043 16.2767 25.5591 17.4505
2849 1 2 0.0866 20.5358 26.1259 20.4158
1267 1 2 0.0866 15.212 23.3634 15.0979
3667 1 1 -0.0531 15.804 32.528 16.9804
6023 1 2 0.0871 11.9472 25.2826 60.1613
808 1 11 -0.2514 13.0083 28.9142 58.578
1317 1 1 -0.0632 59.2048 28.4675 55.9869
1269 1 2 0.0866 14.665 23.3746 19.4913
6342 1 10 0.2266 12.2269 68.8723 21.6081
1270 1 11 -0.2514 15.8358 25.7266 19.8316
1264 1 1 0.0078 16.0628 24.9423 16.2144
5178 1 1 -0.0531 18.5237 22.454 13.9457
4925 1 1 -0.0531 62.1818 28.1568 54.1771
812 1 6 0.1829 13.7109 29.4965 59.1696
1327 1 11 -0.2514 60.602 30.3851 55.8001
2851 1 2 0.0866 18.1196 28.5633 17.692
2843 1 1 -0.0632 20.0408 27.0841 20.2135
2852 1 11 -0.2514 17.846 30.6697 19.322
1324 1 2 0.0839 57.7716 26.8618 55.9928
6030 1 4 -0.2763 13.5592 27.1995 59.8938
1274 1 6 0.1829 15.5175 26.6839 19.9217
2845 1 1 -0.0632 18.4916 28.3353 18.7129
4929 1 2 0.0871 61.29 28.5296 53.6996
6026 1 10 0.2266 12.8891 27.6094 58.9836
1383 1 11 -0.2514 20.0227 22.397 18.7356
1329 1 6 0.1829 60.2018 31.2256 56.1999
800 1 1 -0.0801 11.9049 31.3755 55.9707
5050 1 10 0.2266 21.5576 29.8987 16.8088
1328 1 2 0.0896 58.9001 31.3042 54.14
5187 1 10 0.2266 17.8704 24.831 14.3878
2844 1 1 -0.0801 19.3359 27.214 19.0055
5188 1 4 -0.2763 18.4549 25.3991 13.485
3676 1 4 -0.2763 16.1061 29.9305 18.0594
801 1 1 -0.0632 12.6867 30.5848 56.8015
1824 1 1 0.0078 11.3675 71.0033 20.6441
1815 1 2 0.0866 18.6089 31.8764 15.87
2847 1 1 -0.043 19.1232 29.2482 20.9083
1812 1 1 0.0078 20.2726 31.9426 17.1485
4679 1 4 -0.2763 17.3178 24.2208 20.7429
3672 1 10 0.2266 16.6471 30.8328 18.6202
4288 1 4 -0.2763 58.2727 22.2806 54.8865
804 1 1 0.0078 12.1284 29.6645 57.657
2854 1 2 0.0896 19.083 30.0636 21.6169
5176 1 1 -0.0531 18.4634 23.1875 16.2251
1376 1 1 0.0078 20.4225 22.414 20.1073
1266 1 1 0.0078 15.6325 25.1059 18.6082
2850 1 2 0.0839 19.3739 26.4177 18.3602
6024 1 2 0.0871 11.948 27.4128 56.4346
5177 1 1 0.0277 18.342 23.4697 14.8802
1262 1 1 -0.0801 14.7218 23.2685 17.242
4935 1 4 -0.2763 62.6086 31.1399 56.242
1820 1 6 0.1829 19.56 29.9744 17.104
2856 1 6 0.1829 18.3844 31.4909 19.5226
1318 1 1 -0.0801 58.0122 27.8452 55.5947
1319 1 1 -0.0632 57.1316 28.5225 54.7053
1322 1 1 0.0078 57.3827 29.749 54.1805
1323 1 2 0.0866 59.8443 28.1165 56.735
1320 1 1 0.0078 59.5256 29.6257 55.337
4931 1 10 0.2266 61.9455 30.2799 55.6806
1385 1 6 0.1829 20.6397 22.8155 18.0651
5182 1 2 0.0871 18.3558 23.8925 17.0351
1821 1 1 -0.0632 12.5214 71.7067 20.2131
1377 1 1 -0.043 21.2054 23.4197 20.6258
1273 1 6 0.1829 16.7268 26.3223 14.7398
1822 1 1 -0.0801 12.5139 30.0929 19.1193
1827 1 2 0.0866 13.422 71.557 20.8089
1271 1 11 -0.2514 16.8095 25.4011 15.0522
4921 1 1 -0.0521 63.9067 26.4935 54.4825
807 1 2 0.0866 13.7158 30.6927 56.7303
2848 1 1 0.0078 18.5017 29.4131 19.6444
2846 1 1 0.0078 19.9089 28.1257 21.1455
1384 1 2 0.0896 21.3584 24.2285 19.946
4926 1 1 0.0278 62.6355 28.922 55.2487
6018 1 1 -0.0531 11.6641 25.4252 59.1025
1321 1 1 -0.043 58.6214 30.3103 54.5442
1325 1 2 0.0866 56.1331 28.1714 54.6044
6343 1 4 -0.2763 12.9955 68.7193 20.6754
1268 1 2 0.0839 14.1675 22.3395 17.1999
4672 1 2 0.0872 15.266 27.5031 21.4879
4923 1 1 -0.0521 63.8506 28.5543 55.8074
1831 1 11 -0.2514 11.4263 69.9703 21.6639
806 1 2 0.0839 12.3558 32.1661 55.4066
5054 1 4 -0.2763 21.3245 28.7309 16.5928
4928 1 2 0.0872 64.2087 29.1764 56.5922
1818 1 2 0.0896 21.6549 32.0333 18.6613
5179 1 1 0.0277 18.7588 21.8517 16.6474
4284 1 10 0.2266 57.4951 21.9602 53.9688
4173 1 1 -0.0521 21.6339 32.6786 21.7829
4179 1 2 0.0872 20.962 32.6799 20.9536
3823 1 2 0.0872 17.3357 -17.3609 26.9493
2053 1 2 0.0866 14.0929 -18.3869 29.4727
2046 1 1 -0.0801 15.0603 -17.3557 31.0912
2283 1 1 -0.0632 19.7489 31.0539 25.5117
2293 1 11 -0.2514 18.5771 31.3263 27.6293
4678 1 4 -0.2623 16.1547 30.6375 23.9477
6263 1 2 0.0871 19.5629 -12.021 31.1797
6270 1 4 -0.2763 18.125 -14.0892 30.7761
6333 1 1 -0.0531 11.5182 68.1689 23.9704
3830 1 4 -0.2763 14.518 -15.9539 25.3585
6340 1 10 0.2266 14.289 64.8463 23.7698
2367 1 1 -0.0632 11.5875 30.1245 24.3264
2127 1 6 0.1829 11.8905 66.162 27.2777
2369 1 1 -0.0632 11.2004 29.2845 26.5328
2045 1 1 -0.0632 15.5077 -16.0855 31.7102
2047 1 1 -0.0632 14.5413 -17.4091 29.8136
3825 1 10 0.2266 17.5006 30.4726 27.8741
4734 1 1 -0.0521 20.2985 -16.1788 31.8277
3832 1 9 0.2886 20.5037 27.2707 28.3899
6261 1 1 0.0277 17.4987 -11.8345 31.2457
4682 1 9 0.2886 14.1721 30.6365 22.9104
2052 1 2 0.0839 15.1086 -18.2802 31.6825
2286 1 1 0.0078 19.7909 31.1383 26.9662
2058 1 6 0.1829 13.3241 -16.8099 27.3945
4743 1 10 0.2266 21.9368 -14.263 31.1357
1386 1 6 0.1829 21.0958 25.4714 22.3888
2049 1 1 -0.043 14.8835 -15.0302 29.5601
2050 1 1 0.0078 14.5313 -16.3055 29.034
1378 1 1 0.0078 21.4927 23.5068 22.0454
2287 1 1 -0.043 20.997 30.9248 27.6068
2054 1 11 -0.2514 14.2354 -16.3964 27.6324
2368 1 1 -0.0801 12.0081 29.4004 25.4404
2056 1 2 0.0896 14.7674 -14.1605 28.9179
6339 1 2 0.0871 12.557 65.5222 25.8496
2289 1 2 0.0866 18.8732 31.3481 24.8862
4671 1 1 0.0278 18.5948 27.1745 23.4384
2374 1 2 0.0839 13.0023 29.0997 25.4916
1375 1 1 -0.0632 21.2025 22.4229 22.8782
6332 1 1 0.0277 12.2639 67.9438 22.8108
6334 1 1 0.0277 13.342 65.9423 23.8854
6264 1 2 0.0871 15.3774 -11.0435 31.4296
4647 1 7 -0.379 17.7369 22.2142 28.6755
3585 1 2 0.0872 13.7588 31.5467 27.2937
4666 1 1 -0.0521 16.1663 27.4413 22.1327
6335 1 1 -0.0531 12.5429 66.1625 25.0192
6266 1 10 0.2266 17.2108 -13.3302 31.1668
4669 1 1 0.0278 16.9276 26.2872 21.9161
3822 1 2 0.0872 19.6234 28.5965 28.0981
3829 1 4 -0.2763 16.4764 30.9954 28.2895
4680 1 4 -0.2763 20.6251 27.4271 24.7672