LAMMPS data file via write_data, version 29 Oct 2020, timestep = 511

7080 atoms
14 atom types
7273 bonds
18 bond types
11370 angles
23 angle types
19963 dihedrals
42 dihedral types

11.074817 53.925183 xlo xhi
11.074817 53.925183 ylo yhi
11.074817 53.925183 zlo zhi

Masses

1 12.01
2 1.008
3 12.01
4 16
5 14.01
6 1.008
7 16
8 14.01
9 1.008
10 12.01
11 14.01
12 12.01
13 1.008
14 16

Pair Coeffs # lj/cut/coul/long/omp

1 0.086 3.39967
2 0.015 2.59964
3 0.086 3.39967
4 0.21 2.95992
5 0.17 3.25
6 0.0157 1.06908
7 0.2104 3.06647
8 0.17 3.25
9 0 0
10 0.086 3.39967
11 0.17 3.25
12 0.086 3.39967
13 0.0157 1.06908
14 0.2104 3.06647

Atoms # full

55 1 6 0.0 11.259168636859583 19.29918513648398 19.85019350922272 0 0 0
281 1 1 0.0 16.870630957800415 12.324920532415076 16.776941715214786 0 0 0
282 1 1 0.0 17.49148398160596 11.133431567643868 16.372965240925843 0 0 0
284 1 1 0.0 15.885326719738723 12.309904453941064 17.779536861399112 0 0 0
507 1 1 0.0 20.204897916014758 19.82426132649393 21.534334801253113 0 0 0
287 1 2 0.0 17.14381766186258 13.260186723802194 16.296234468283558 0 0 0
288 1 2 0.0 18.241231077393994 11.150433569532947 15.587318083853056 0 0 0
291 1 11 0.0 15.26432436447416 13.53272286759456 18.13803796176792 0 0 0
6600 1 4 0.0 31.96650072742117 11.359803202703041 21.610678599044096 0 1 0
293 1 6 0.0 15.830062278538962 14.354974837150317 17.96629292080208 0 0 0
505 1 1 0.0 20.480268310185416 19.042543403396657 19.252731229496845 0 0 0
506 1 1 0.0 19.70154383293927 19.154117151882858 20.41181358377937 0 0 0
511 1 2 0.0 20.073787773752876 18.5181793998938 18.39269358070555 0 0 0
512 1 2 0.0 18.707596458804023 18.725606399973284 20.43703512186025 0 0 0
1038 1 1 0.0 17.17021666426696 15.988044007143989 20.422435616004726 0 0 0
1039 1 1 0.0 15.93936994297823 15.874614782059245 21.079394396906363 0 0 0
1164 1 1 0.0 32.37003820357578 16.892595814060037 13.667343587426588 0 0 0
1044 1 2 0.0 17.22131989075694 16.45112521984336 19.44392439077427 0 0 0
1045 1 2 0.0 15.043836716058195 16.28098597674852 20.62478705743738 0 0 0
1401 1 1 0.0 21.1402640190458 13.659688364759388 12.858344532082244 0 0 0
1402 1 1 0.0 21.793933746359155 14.889537804223448 13.041715628221368 0 0 0
1407 1 2 0.0 20.406903332704683 13.551366780598856 12.066926277929346 0 0 0
1408 1 2 0.0 21.558287099758008 15.726302372002397 12.391464817954189 0 0 0
1583 1 1 0.0 15.336787169271874 13.954637793406155 13.7905635855393 0 0 0
1584 1 1 0.0 14.304091003466176 14.320526906782876 14.668765339469077 0 0 0
1585 1 1 0.0 13.534623099025062 13.333185211681016 15.30361965159575 0 0 0
1586 1 1 0.0 15.589334713010919 12.59701001516324 13.53332187363333 0 0 0
1587 1 1 0.0 14.840999364328978 11.61267215696559 14.214084802338123 0 0 0
1588 1 1 0.0 13.813562226086963 11.96891494399561 15.1123152163505 0 0 0
1589 1 2 0.0 15.917034852915387 14.723867044073195 13.287936095890723 0 0 0
1590 1 2 0.0 14.092841174953172 15.368898039387476 14.856071913608881 0 0 0
1591 1 2 0.0 12.73442832985524 13.631350880705043 15.972378180963192 0 0 0
1593 1 11 0.0 16.586557707014535 12.230183695616038 12.584565632614643 0 0 0
1595 1 6 0.0 17.43076376435184 12.789562402481012 12.577158837639347 0 0 0
1596 1 6 0.0 12.182783544182191 11.398745444627783 16.23737160966624 0 0 0
2213 1 1 0.0 19.97441671565188 18.011354552958583 13.774366258629199 0 0 0
2214 1 1 0.0 19.614195442491418 19.08200864887129 12.948432275202938 0 0 0
2215 1 1 0.0 18.260888152028546 19.37467727020513 12.741877970446707 0 0 0
2216 1 1 0.0 18.98512750344034 17.241300114749116 14.409200249970784 0 0 0
2217 1 1 0.0 17.620219980902856 17.52576130449739 14.188040483966256 0 0 0
2218 1 1 0.0 17.26103068487638 18.618134988974315 13.376086905102632 0 0 0
2219 1 2 0.0 21.025746596719813 17.803377576707383 13.952745059406977 0 0 0
2220 1 2 0.0 20.380229905369774 19.703486342172585 12.497088499884923 0 0 0
2221 1 2 0.0 17.98806549524853 20.23976351786587 12.143453889884434 0 0 0
2222 1 11 0.0 15.94593563654625 19.13837224978178 13.324391071351336 0 0 0
2223 1 11 0.0 19.429715046034776 16.231955713082524 15.297224118116077 0 0 0
2224 1 2 0.0 16.849538533327365 16.95518803262094 14.69715370459993 0 0 0
2225 1 6 0.0 20.346283085096204 15.860515512522154 15.07759428586249 0 0 0
2226 1 6 0.0 15.926186338432116 20.148168434990794 13.263641973710259 0 0 0
2451 1 1 0.0 11.282775675190587 18.153965495223602 15.951879157347882 0 0 0
2452 1 1 0.0 11.521796183337852 19.48379221890999 16.34066440055957 0 0 0
2457 1 2 0.0 12.057934039992531 17.405080020922714 16.085917782549554 0 0 0
2458 1 2 0.0 12.466332515081769 19.755460464852984 16.79600567695529 0 0 0
2495 1 1 0.0 15.682470123932491 19.266641213539963 20.72909161880527 0 0 0
2496 1 1 0.0 13.45307966136657 20.79619062841198 21.485125483929078 0 0 0
2497 1 1 0.0 13.860205456962568 20.760125150075975 20.14014826540518 0 0 0
2498 1 1 0.0 14.946241474095176 19.955700725769354 19.752877531788933 0 0 0
2501 1 2 0.0 16.520864001382552 18.650189220611043 20.433865117735365 0 0 0
2502 1 11 0.0 15.245021732213925 19.762758186381383 18.380459019969116 0 0 0
2506 1 6 0.0 15.840155188795542 20.46622471711397 17.96001973268733 0 0 0
4170 1 4 0.0 20.93841398858498 19.949364682135027 16.460271592333466 0 0 0
4275 1 1 0.0 11.58132362507107 21.24109145746842 11.878282514909353 0 0 0
4276 1 1 0.0 11.25503520352399 19.902893625734897 12.176192652582767 0 0 0
4277 1 1 0.0 12.27182781630175 19.022653197024983 12.618758407217365 0 0 0
4278 1 1 0.0 12.912658176542905 21.679449067963233 11.93447427833358 0 0 0
4279 1 1 0.0 13.896482937165752 20.80455660664343 12.422111531482251 0 0 0
4280 1 1 0.0 13.60482495326654 19.46512775766915 12.746999217445559 0 0 0
4282 1 2 0.0 12.035742000068916 17.98542000609285 12.838158480131863 0 0 0
4283 1 2 0.0 14.916642651965667 21.167685830770644 12.473641150340608 0 0 0
4285 1 10 0.0 14.726562736168221 18.51427688003112 13.103160157557511 0 0 0
4289 1 4 0.0 14.595192591891376 17.302841269901265 13.071428539909839 0 0 0
5184 1 2 0.0 18.98022322428015 21.59345709238853 18.481332312266506 0 0 0
5190 1 4 0.0 17.803268102859978 20.174385726388728 16.28495495770738 0 0 0
1037 1 1 0.0 18.339308466912936 15.545307066786469 21.05434875307157 0 0 0
6301 1 1 0.0 21.44477703961459 13.088591882947904 18.660994071818006 0 0 0
6302 1 1 0.0 22.013282665153394 13.986710465242323 17.734849125004956 0 0 0
6303 1 1 0.0 21.191810335072898 14.947020673679598 17.120082013276125 0 0 0
6304 1 1 0.0 20.059223972344597 13.127524710652612 18.940669371034726 0 0 0
6305 1 1 0.0 19.25564771819705 14.072941828161866 18.26950848223584 0 0 0
6306 1 1 0.0 19.80436877125965 14.962679652820512 17.3331671561751 0 0 0
6307 1 2 0.0 22.083571869328015 12.355782425756445 19.14528509539731 0 0 0
6308 1 2 0.0 21.63789888045852 15.677133659837828 16.453435861460008 0 0 0
6309 1 2 0.0 18.186552348024904 14.098322276441506 18.450464028637445 0 0 0
6310 1 10 0.0 19.394459436384164 12.172678858409235 19.901460613070725 0 0 0
6311 1 10 0.0 18.921182303652873 15.88418139421005 16.538828702490413 0 0 0
6314 1 4 0.0 18.23773520356821 12.34457718383186 20.251572872226866 0 0 0
6315 1 4 0.0 17.847412651107394 16.278304066437773 16.958329811284774 0 0 0
6481 1 1 0.0 12.862940362675486 17.92188808339883 18.836427194738903 0 0 0
6482 1 1 0.0 11.970132252313087 16.944015048960086 19.31023244391584 0 0 0
6483 1 1 0.0 12.328158964453324 15.58682523626027 19.181101102445947 0 0 0
6484 1 1 0.0 14.064428554148936 17.578203987300085 18.20087751629984 0 0 0
6485 1 1 0.0 14.378153119352053 16.222235500009806 18.03455898532455 0 0 0
6486 1 1 0.0 13.541568390425823 15.215283043566409 18.562584767420073 0 0 0
6487 1 2 0.0 12.592521600112905 18.965754310584035 18.8877869565535 0 0 0
6488 1 2 0.0 11.664326444768346 14.818932886533958 19.567947337511665 0 0 0
6489 1 2 0.0 15.294577143364155 15.965500306894644 17.515202715145787 0 0 0
6490 1 10 0.0 14.96188592406145 18.63481015105947 17.617524056016695 0 0 0
6491 1 10 0.0 13.938494263210817 13.765012288385254 18.486273592911736 0 0 0
6793 158 9 0.0 25.51314714148682 16.384096391114515 13.617155100570681 0 0 0
6494 1 4 0.0 15.429825962303243 18.498659303828113 16.501647924678945 0 0 0
6495 1 4 0.0 13.12426132263353 12.87224361716317 18.656424275906893 0 0 0
7062 292 14 0.5 14.153214687656634 21.47898651032618 15.645424489890887 0 0 0
6657 28 13 0.0 15.813175100293304 20.88256173276579 16.675456048438882 0 0 0
6749 120 13 0.0 19.334640437678146 18.542432996555842 16.299418443895842 0 0 0
6855 189 9 0.0 21.623517242206397 15.439851614846901 20.36347970087143 0 0 0
6856 189 14 0.5 21.736024995160992 16.395194057516836 20.216089936466368 0 0 0
6869 196 9 0.0 13.05295497515242 15.029057681439246 11.577924327126516 0 0 0
6870 196 14 0.5 13.061079836634422 14.063840629303831 11.454982881395146 0 0 0
7061 292 9 0.0 14.343767298011826 21.288910763640523 14.710203693314885 0 0 0
2504 1 2 0.0 13.289514965088406 21.298868660773135 19.38692549245535 0 0 0
6839 181 9 0.0 13.714971675381944 12.313772274024632 21.04086310761158 0 1 0
1043 1 2 0.0 19.293868902920334 15.665604354431727 20.55694325016892 0 0 0
6794 158 14 0.5 26.080024362624563 15.674710782002066 13.26771359287369 0 0 0
508 1 1 0.0 21.773595832914687 19.59950440377237 19.211632556834953 0 0 0
509 1 1 0.0 22.293178900640974 20.234986812201623 20.357622832501026 0 0 0
515 1 11 0.0 22.555639771511718 19.538075234946483 18.027375992730626 0 0 0
516 1 2 0.0 23.29071568557142 20.66688985966938 20.33195938351074 0 0 0
517 1 6 0.0 23.556853408808806 19.468116880616588 18.165448444858026 0 0 0
701 1 1 0.0 30.82035943812487 16.765140546478143 18.706268704075875 0 0 0
702 1 1 0.0 30.63139559238195 17.838934672711712 19.587835546526147 0 0 0
703 1 1 0.0 30.112715385013885 19.051427424181156 19.116174589718618 0 0 0
704 1 1 0.0 30.47948401443983 16.888139547450056 17.348914855413756 0 0 0
705 1 1 0.0 29.954525704446997 18.10892540480761 16.878807230183664 0 0 0
706 1 1 0.0 29.7499625793425 19.186173542447666 17.762325576225454 0 0 0
707 1 2 0.0 31.235052491156786 15.833226768814493 19.079190591897046 0 0 0
708 1 2 0.0 30.906597612956634 17.738746870786663 20.632587382112856 0 0 0
709 1 2 0.0 30.001188656738847 19.882700514109466 19.805596949844947 0 0 0
710 1 11 0.0 29.245222119442413 20.41483795316461 17.25639451626354 0 0 0
711 1 11 0.0 30.735131367598164 15.773363628430372 16.506024514437048 0 0 0
712 1 2 0.0 29.725854467469365 18.238059305753595 15.826305166523815 0 0 0
713 1 6 0.0 31.43473430708083 15.138397403486175 16.86920543631227 0 0 0
714 1 6 0.0 29.67868315581983 20.725374163272164 16.395145931834524 0 0 0
841 1 1 0.0 24.589728888334015 14.946383090738065 21.194396503203823 0 0 0
842 1 1 0.0 24.277294957247893 13.640244170242356 21.60686522885333 0 0 0
847 1 2 0.0 24.07436521971967 15.368620533015422 20.341013859671037 0 0 0
848 1 2 0.0 23.52776195411832 13.067012042195646 21.069494754868796 0 0 0
851 1 11 0.0 25.830054423642345 17.061423491274507 21.57999379158935 0 0 0
1165 1 1 0.0 32.01866712462139 16.14617818999366 12.5315251490634 0 0 0
1171 1 2 0.0 31.22632231479261 16.512335298569724 11.88698636760103 0 0 0
1242 1 11 0.0 24.698924292404307 21.656310384676534 11.408593072634794 0 0 0
1246 1 6 0.0 25.585559190357905 21.262838170488436 11.698350296821546 0 0 0
1403 1 1 0.0 22.737483640114146 15.041172516456246 14.07296031211707 0 0 0
1405 1 1 0.0 22.376941374810276 12.729606327029021 14.730222812119813 0 0 0
1406 1 1 0.0 23.00605502547613 13.965870346638964 14.93890087207935 0 0 0
1409 1 2 0.0 23.218306618634642 16.003148962741516 14.229255721055269 0 0 0
1410 1 11 0.0 23.84614030561772 14.124302646670793 16.069067928022832 0 0 0
1414 1 6 0.0 24.837622074002812 14.13234916165955 15.865819989104754 0 0 0
2507 1 1 0.0 27.006071406866543 13.583703121068458 15.826708256109825 0 0 0
2508 1 1 0.0 26.848913693129234 12.609701843870258 14.829468958519143 0 0 0
2509 1 1 0.0 27.553433764143737 11.40142039583509 14.921007710544943 0 0 0
2510 1 1 0.0 27.846493440551235 13.358158611423043 16.928968723769714 0 0 0
2511 1 1 0.0 28.56992102115094 12.14654751165131 16.99938264348659 0 0 0
2512 1 1 0.0 28.413495385349332 11.164994889747232 16.0026877901118 0 0 0
2513 1 2 0.0 26.4892045826277 14.53340158887724 15.734899938960698 0 0 0
2514 1 2 0.0 26.197257793292792 12.797961561954857 13.981020323662664 0 0 0
2517 1 11 0.0 27.99327464492245 14.428117195840994 17.8584265796652 0 0 0
2518 1 2 0.0 29.2838840477136 11.969868219632314 17.794422751055208 0 0 0
2519 1 6 0.0 27.857276504523252 15.344731992761403 17.449424814121652 0 0 0
6726 97 13 0.0 20.86685677322135 21.52500089853853 17.961431704862907 0 0 0
3233 1 6 0.0 25.460890247028853 17.348646045695993 11.393782378583461 0 0 0
3305 1 1 0.0 29.45367804812242 21.355822032596414 13.684688589612858 0 0 0
3306 1 1 0.0 30.559158599714163 20.81812361948964 13.009580950936458 0 0 0
3311 1 2 0.0 29.105746135793368 20.889749025669044 14.600140581781694 0 0 0
3312 1 2 0.0 31.060950664092847 19.941660986907486 13.405733962143367 0 0 0
3313 1 2 0.0 31.84896631536289 20.967585614166108 11.288199691535624 0 0 0
4156 1 1 0.0 25.146253014121363 19.94328145159615 13.666609406890297 0 0 0
4157 1 1 0.0 25.398788294492523 19.190899553692226 14.83068955902229 0 0 0
4158 1 1 0.0 24.409773058034133 19.123104602741318 15.832743281408666 0 0 0
4159 1 1 0.0 23.907198731722023 20.590221114519032 13.471681538011078 0 0 0
4160 1 1 0.0 22.919422018995903 20.464731406870385 14.465237973412316 0 0 0
4161 1 1 0.0 23.167894199029433 19.763627566536744 15.660100750122696 0 0 0
4162 1 2 0.0 25.91812853842668 20.004494575959317 12.90532040486121 0 0 0
4163 1 2 0.0 24.59906218570437 18.561757558480114 16.742932637739155 0 0 0
4164 1 2 0.0 21.95962962608606 20.94675025076631 14.320617181354285 0 0 0
4165 1 10 0.0 23.619496414381878 21.420137564487693 12.243542352929074 0 0 0
4166 1 10 0.0 22.10639196630384 19.71785925719772 16.724747166128157 0 0 0
4167 1 12 0.0 26.713379426217397 18.471238826792373 14.976529447854944 0 0 0
4168 1 4 0.0 27.62540322299467 18.58373916709735 14.175467182769083 0 0 0
4171 1 7 0.0 26.78619648368398 17.58078568436459 15.993840526440872 0 0 0
4172 1 9 0.0 25.929342224487492 17.614153309039203 16.45366893909566 0 0 0
4547 1 1 0.0 29.89133463348924 13.494834212130522 13.64929071452097 0 0 0
4548 1 1 0.0 30.232078009556957 12.218187107044052 13.153488311470827 0 0 0
4549 1 1 0.0 31.210179834960744 11.462722303865247 13.827126536075994 0 0 0
4550 1 1 0.0 30.499037766790714 14.008179947351202 14.812550866984576 0 0 0
4551 1 1 0.0 31.47471090899736 13.228293670183357 15.465982316514708 0 0 0
4552 1 1 0.0 31.84069974339918 11.954722193437641 14.983986029621374 0 0 0
4553 1 2 0.0 29.133241771229166 14.086412225509607 13.144993927849214 0 0 0
4555 1 2 0.0 31.94793631678216 13.613188760031425 16.360633456531627 0 0 0
4556 1 10 0.0 30.073089540226754 15.351110948010113 15.359234087504214 0 0 0
4558 1 12 0.0 29.556065451886525 11.63041289924893 11.942029002072495 0 0 0
4560 1 4 0.0 29.162602556705092 15.982460513814349 14.85154038759103 0 0 0
4562 1 7 0.0 28.60292507966632 12.397430143758696 11.366208532205214 0 0 0
4563 1 9 0.0 28.551852609719738 13.215853764141192 11.889625502852494 0 0 0
5104 1 4 0.0 32.37887374973303 20.031586452806707 16.01261646996838 0 0 0
5759 1 4 0.0 23.15917432513553 17.927023352162127 12.079540128312713 0 0 0
5911 1 1 0.0 26.491474755515238 19.870641003205183 21.454556269692254 0 0 0
5912 1 1 0.0 27.0141351411712 21.183661251793673 21.409704798187803 0 0 0
5913 1 1 0.0 27.552226175304398 21.655326149748984 20.195421056581555 0 0 0
5914 1 1 0.0 26.451211399846542 19.058495162310265 20.301210587519446 0 0 0
5915 1 1 0.0 26.978334826132873 19.565222118327345 19.101878025673493 0 0 0
5916 1 1 0.0 27.582134092901036 20.832577534765573 19.055916430218993 0 0 0
5919 1 2 0.0 26.98264620146187 18.94599635734981 18.212420303293005 0 0 0
5920 1 10 0.0 25.90521923135311 17.65269913070297 20.32673986497762 0 0 0
5921 1 10 0.0 28.31592900372628 21.27957510115781 17.824656809921006 0 0 0
5924 1 4 0.0 25.67478508779177 17.040805634741865 19.295764391190932 0 0 0
6312 1 10 0.0 23.480433789365126 13.935187688683353 17.397076322961055 0 0 0
6313 1 4 0.0 24.324797755037768 13.724412184669811 18.24856609228393 0 0 0
6586 1 1 0.0 27.215041711194356 12.267986763554866 20.01761551343693 0 0 0
6589 1 1 0.0 28.337874527957204 13.10268540618101 19.92251916824627 0 0 0
6590 1 1 0.0 29.593381135780863 12.643591905219017 20.352515392089177 0 0 0
6591 1 1 0.0 29.749662117317495 11.304930146443155 20.74891981677913 0 0 0
6592 1 2 0.0 26.25370114883076 12.63908006413157 19.678744462193528 0 0 0
6594 1 2 0.0 30.465917035429662 13.282558425843952 20.246307815991017 0 0 0
6595 1 10 0.0 28.22568151896747 14.41812645462254 19.227400231449842 0 0 0
6599 1 4 0.0 28.319720700624597 15.458891144093474 19.848554239750438 0 0 0
6648 19 13 0.0 23.406843718517848 16.54804203100359 16.161986418062106 0 0 0
6696 67 13 0.0 23.382059594882847 15.999680394334632 18.716171776174075 0 0 0
6706 77 13 0.0 26.83789196446819 11.922975207488486 12.52106059108126 0 0 0
6624 1 2 0.0 22.821508133780124 11.628432671969467 11.511035107494239 0 1 0
3307 1 1 0.0 31.006983157115418 21.404159466998216 11.816248789567204 0 0 0
1404 1 1 0.0 21.452721528269745 12.568018784079626 13.68557903973367 0 1 0
1170 1 2 0.0 31.856863535498128 17.823687780727155 13.883803220237935 0 0 0
139 1 6 0.0 18.24158677510027 21.126689019211614 14.051906297665147 0 0 0
5186 1 10 0.0 17.810507368298392 21.365169991472293 16.030617522904443 0 0 0
510 1 1 0.0 21.50338023614337 20.36076822898427 21.51750764469614 0 0 0
1494 1 11 0.0 20.14083329377695 11.082303600546146 20.332850659258646 0 1 0
6552 1 10 0.0 16.4875390843736 11.189032919953386 11.671868462866358 0 1 0
1412 1 2 0.0 22.59328344606689 11.896688903089316 15.394325605672476 0 1 0
1172 1 11 0.0 32.430494524689976 14.16817858075731 11.08001994074076 0 0 1
4317 1 2 0.0 32.231285964495015 21.523771475483496 19.54419112702303 0 0 0
1411 1 11 0.0 20.849741266893396 11.302246623429102 13.479952529760983 0 1 0
1413 1 6 0.0 19.849867121299965 11.268297854481496 13.635866091553856 0 1 0
6643 14 13 0.0 13.14286609471747 16.814731974971174 21.593641683603547 0 0 0
285 1 1 0.0 15.543376998501062 11.09203708200738 18.392402667060512 0 0 0
265 1 6 0.0 17.874288976442564 11.905412099655196 28.536292182829396 0 0 0
1926 1 2 0.0 27.224292951363054 18.89388184620966 32.09838371524657 0 0 0
4829 1 10 0.0 26.617509061364924 11.944912701987002 32.44865023432271 0 0 0
513 1 2 0.0 19.57770588320066 19.937399328723377 22.41139568018698 0 0 0
4824 1 1 0.0 25.301915598037773 11.239104910035724 32.24578103292678 0 0 0
1040 1 1 0.0 18.278543420717238 14.966019152133057 22.33132091068086 0 0 0
1041 1 1 0.0 17.03995720818202 14.845021766967971 22.988411418140068 0 0 0
1042 1 1 0.0 15.873213786297995 15.325720228921469 22.366385299298496 0 0 0
1046 1 11 0.0 14.647595382333817 15.418719410318648 23.060171425101416 0 0 0
1047 1 11 0.0 19.4816966094811 14.608337808386548 22.979707558293686 0 0 0
1048 1 2 0.0 16.995216421610273 14.449347830995176 24.000233415761308 0 0 0
1049 1 6 0.0 20.14725259206587 15.359850790807736 23.112439095690796 0 0 0
1050 1 6 0.0 13.83366204680917 15.092695915491916 22.55391640375679 0 0 0
1065 1 1 0.0 21.13667425333634 18.21819659604911 25.330442148379298 0 0 0
1066 1 1 0.0 19.790680753127244 18.549278329062965 25.14155793259904 0 0 0
1067 1 1 0.0 18.788270056375215 17.762462996118053 25.721234407593297 0 0 0
1068 1 1 0.0 21.49752393470576 17.097784319030126 26.090235086793427 0 0 0
1069 1 1 0.0 20.490254680942126 16.31170577041159 26.682054880349014 0 0 0
1070 1 1 0.0 19.132780391989414 16.645391998045778 26.506852052568586 0 0 0
1071 1 2 0.0 21.904103616376496 18.8192272634578 24.866953923235798 0 0 0
1072 1 2 0.0 19.52587559825581 19.41167615149877 24.542635682517332 0 0 0
1073 1 2 0.0 17.749524788080663 18.017881784514042 25.53879577766018 0 0 0
1074 1 11 0.0 18.131300530139423 15.795154107365766 27.041890698911473 0 0 0
1076 1 2 0.0 20.761175585236188 15.429835993981087 27.25445349872733 0 0 0
1078 1 6 0.0 18.333044687778184 14.804482728485635 26.984477993837864 0 0 0
1500 1 1 0.0 20.826481166710224 16.505454761053013 30.232857518918426 0 0 0
1501 1 1 0.0 20.0496032662924 17.65465593759249 30.448725134407475 0 0 0
1503 1 1 0.0 21.48513052472869 18.255628105018303 32.31724189818082 0 0 0
1504 1 1 0.0 20.379378805225805 18.539535473602523 31.493724350819704 0 0 0
1506 1 2 0.0 20.56870632217753 15.819588026202506 29.43482866832325 0 0 0
1507 1 2 0.0 19.198529879328554 17.84893974676398 29.803366898858837 0 0 0
1508 1 11 0.0 19.615607415786396 19.701775956133364 31.782585350312498 0 0 0
1512 1 6 0.0 20.12543886849401 20.40878097879695 32.2989069468884 0 0 0
2493 1 1 0.0 14.19904019133365 20.10306357842661 22.459088575364955 0 0 0
2494 1 1 0.0 15.318830135792362 19.34800853210432 22.080898263204897 0 0 0
2499 1 2 0.0 13.924737157233805 20.15990223641711 23.508907360682 0 0 0
2500 1 2 0.0 15.896860621914552 18.81819206823294 22.830832491589756 0 0 0
2727 1 11 0.0 11.701712807012578 13.296202794499722 26.231023454857507 0 0 0
2729 1 6 0.0 12.326261899771602 12.51920577668619 26.05289660281136 0 0 0
2860 1 1 0.0 14.041329345535399 16.48776372359901 31.15257773722827 0 0 0
2861 1 1 0.0 12.966556499194125 15.62948340593414 30.864517730794823 0 0 0
2862 1 1 0.0 12.636108441187446 14.581504486932722 31.746395843643974 0 0 0
2866 1 11 0.0 11.357129178059791 13.978509897415949 31.662236175950156 0 0 0
2867 1 11 0.0 14.14945709700689 17.716573763443705 30.456650554661582 0 0 0
2868 1 2 0.0 12.300129464439678 15.872967090313582 30.04067825304588 0 0 0
2869 1 6 0.0 14.34301042914154 17.666128873559938 29.46360654447128 0 0 0
2913 1 1 0.0 16.389869642943633 12.645237716366069 31.913963808199085 0 0 0
2914 1 1 0.0 17.35650259437784 13.295150779828361 31.13821790545879 0 0 0
2915 1 1 0.0 18.690010982969273 12.870364066989058 31.176297064281226 0 0 0
2918 1 1 0.0 19.07077660750801 11.817090203794212 32.030199195263805 0 0 0
2919 1 2 0.0 15.353797143049952 12.947145625810641 31.82869140917201 0 0 0
2920 1 2 0.0 17.067565892173416 14.12004747721207 30.49743991581962 0 0 0
2921 1 2 0.0 19.410286081734306 13.34803672893887 30.51974661279218 0 0 0
2922 1 11 0.0 20.402129868790567 11.314761201497715 32.03648166820888 0 0 0
4633 1 1 0.0 14.48801460781274 21.268657115168963 28.042294969446612 0 0 0
4634 1 1 0.0 14.511641940567664 20.152234569486865 28.89876702148336 0 0 0
4636 1 1 0.0 12.838319931638122 21.186562480383305 30.320051226814822 0 0 0
4637 1 1 0.0 13.698229803355897 20.10471850910392 30.04560926079611 0 0 0
4639 1 2 0.0 15.17766804718819 19.32589485140775 28.67629838464818 0 0 0
4640 1 2 0.0 12.194416470188717 21.159373684177684 31.190772479440643 0 0 0
4642 1 10 0.0 13.750731284783798 18.934435661945212 30.987047695268963 0 0 0
4643 1 12 0.0 15.339375390347586 21.260225013435015 26.80328906928594 0 0 0
4644 1 4 0.0 15.852268058565466 20.247305711769343 26.358959273052236 0 0 0
4646 1 4 0.0 13.366445123368887 19.031471568913986 32.13997141468146 0 0 0
4764 1 4 0.0 16.93952538849667 11.412076875056119 25.32074856692355 0 0 0
4828 1 10 0.0 21.57761919117228 12.035938436338082 31.872631605037256 0 0 0
4832 1 4 0.0 21.582127413431152 13.246014690626534 31.751153114707762 0 0 0
5673 1 1 0.0 21.831747568488428 14.446775696247336 24.57241206470929 0 0 0
5675 1 1 0.0 21.606276453040273 12.032069676736079 24.659521637729814 0 0 0
5676 1 1 0.0 21.13786091978378 13.276997832046733 24.19761655467741 0 0 0
5678 1 2 0.0 21.53041596549647 15.408426679662792 24.17437642958354 0 0 0
5679 1 2 0.0 21.098418677673237 11.12067719893726 24.359624929447875 0 0 0
5681 1 10 0.0 19.84905164488269 13.34849864541316 23.420136399263193 0 0 0
5685 1 4 0.0 19.128190169906635 12.375169336380551 23.27114536316645 0 0 0
844 1 1 0.0 25.537914471716686 15.708235702498303 21.901611684604312 0 0 0
6226 1 1 0.0 14.54965705020561 15.218672212600254 27.428043778883456 0 0 0
6227 1 1 0.0 15.916250041335271 15.012105616288775 27.67941131838475 0 0 0
6228 1 1 0.0 16.368144742352886 13.718037564383362 27.99719088409038 0 0 0
6229 1 1 0.0 13.66250150230119 14.131134974023194 27.38272810384529 0 0 0
6230 1 1 0.0 14.130383542369058 12.84213087912401 27.71180041098482 0 0 0
6231 1 1 0.0 15.47838353701468 12.626231307049954 28.056131345825328 0 0 0
6232 1 2 0.0 14.193255655027551 16.21272095739635 27.17527325727209 0 0 0
6233 1 2 0.0 17.41576697809095 13.57821639425923 28.232716819934062 0 0 0
6234 1 2 0.0 13.437059300749114 12.006093799636265 27.717777162975498 0 0 0
6235 1 10 0.0 12.242648545265414 14.350323440010673 26.9502453670843 0 0 0
6237 1 10 0.0 16.879850019272382 16.153366261872012 27.523603479403533 0 0 0
6238 1 4 0.0 16.52383094538041 17.31268900665877 27.6540863442536 0 0 0
6239 1 4 0.0 11.660644471197509 15.399497596622616 27.164855779089134 0 0 0
6326 1 10 0.0 18.232026294802516 19.820801999321706 31.817715338414676 0 0 0
6330 1 4 0.0 17.48507082279901 18.964310383625243 31.372647106819855 0 0 0
6344 1 4 0.0 11.264969654083663 20.2040434342869 23.294556856040764 0 0 0
6513 1 1 0.0 11.912106823765605 15.964708183920607 23.764127439438486 0 0 0
6515 1 1 0.0 12.700742350411636 17.740271890896906 25.21522436558076 0 0 0
6516 1 1 0.0 12.98290571893675 16.665465889643723 24.355468241863385 0 0 0
6518 1 2 0.0 12.117729646258232 15.109417087025514 23.128921241207735 0 0 0
6519 1 2 0.0 13.522160438648655 18.272251620278606 25.686349443876622 0 0 0
6521 1 10 0.0 14.42035016918962 16.299728250952665 24.101235627895548 0 0 0
6524 1 4 0.0 12.080671623022392 19.810638134330574 26.9901545580327 0 0 0
6525 1 4 0.0 15.338044742996882 16.876532420334456 24.6627756215111 0 0 0
6649 20 13 0.0 14.539530577792117 14.180773395794422 29.73289862570585 0 0 0
6700 71 13 0.0 13.352777533923229 13.813801101156033 29.60508063332949 0 0 0
1634 1 11 0.0 32.21431473747321 11.093407452480497 27.16341277265489 0 1 0
6728 99 13 0.0 16.515273108843743 20.241688702338873 24.316394049361563 0 0 0
6772 143 13 0.0 21.711765672014145 21.22556662727969 29.01129760966244 0 0 0
6879 201 9 0.0 19.531326211808725 13.781799569061041 26.98263120566851 0 0 0
6880 201 14 0.5 19.411779281385897 12.828869985190895 26.82653072525484 0 0 0
7067 295 9 0.0 19.74558037554621 19.200203329943875 28.090597527374364 0 0 0
7068 295 14 0.5 19.271349753784126 20.0496984196798 28.068969920287625 0 0 0
1499 1 1 0.0 21.931581439622686 16.23351861071598 31.05261534847655 0 0 0
7014 268 14 0.5 29.739179551322415 21.128124236491416 30.18221346646252 0 0 0
2857 1 1 0.0 14.849542364501817 16.241842122486627 32.275669514406516 0 0 0
7050 286 14 0.5 27.094409906480603 17.653691804143737 25.778637933837242 0 0 0
514 1 11 0.0 21.955694673197616 21.08343328779583 22.65124511090644 0 0 0
843 1 1 0.0 24.924989090477965 13.076793614868798 22.71760467415124 0 0 0
845 1 1 0.0 26.17863721302569 15.138393211094918 23.011543893986378 0 0 0
846 1 1 0.0 25.887393629600343 13.823332109967039 23.417448242050526 0 0 0
849 1 2 0.0 24.658020321811932 12.076877602688985 23.04562858998215 0 0 0
850 1 11 0.0 26.457648961337533 13.3315898131605 24.616010633942434 0 0 0
852 1 2 0.0 26.87901249685004 15.737429598776105 23.58657917654707 0 0 0
853 1 6 0.0 26.1508188618261 17.622185965020346 22.36011550145852 0 0 0
854 1 6 0.0 25.799790326778435 13.287872779055338 25.38500029052782 0 0 0
1075 1 11 0.0 22.879116621198136 16.809006132599333 26.239656594145487 0 0 0
1077 1 6 0.0 23.4392953973175 17.605150634514455 26.520734601318445 0 0 0
1502 1 1 0.0 22.23939905022707 17.085296662306618 32.12417965851229 0 0 0
1505 1 2 0.0 22.541289947119413 15.357129212729568 30.86185773774299 0 0 0
1638 1 6 0.0 32.17810835349427 12.010423012770728 27.59305829020341 0 0 0
1919 1 1 0.0 26.331389011148993 17.057978388917565 31.3999994216703 0 0 0
1920 1 1 0.0 26.597600765446785 18.43276056349839 31.34100013769351 0 0 0
1921 1 1 0.0 26.05444316695575 19.210925861740446 30.30622781491507 0 0 0
1922 1 1 0.0 25.566024649960312 16.44736483076756 30.391739691964137 0 0 0
1923 1 1 0.0 25.00529857249588 17.23217384014344 29.367281011539 0 0 0
1924 1 1 0.0 25.22924059739797 18.620400074221894 29.327964143196205 0 0 0
6520 1 10 0.0 11.137881888185651 19.224313414576383 26.491308607050087 1 0 0
518 1 6 0.0 21.31073687124723 21.780419796011593 23.004055826942007 0 0 0
1927 1 2 0.0 26.26694639412849 20.275290925000856 30.276913573913188 0 0 0
1928 1 11 0.0 24.623436578999012 19.40618004376303 28.306912518300596 0 0 0
1929 1 11 0.0 25.36290711558537 15.04507136004552 30.414365605652105 0 0 0
1930 1 2 0.0 24.38278161514561 16.76385760860039 28.61303742183192 0 0 0
1931 1 6 0.0 24.6421514707424 14.735902669940915 31.055243948119536 0 0 0
1932 1 6 0.0 24.62606721936381 19.004419501113404 27.37703525942477 0 0 0
2969 1 1 0.0 30.631480860905164 15.599269298125149 22.85085404522094 0 0 0
2970 1 1 0.0 29.587560526077215 16.53500290130839 22.776859454683994 0 0 0
2971 1 1 0.0 29.62148587965322 17.69888225853424 23.557090398126693 0 0 0
2972 1 1 0.0 31.699843336739786 15.808336484067793 23.73849439037333 0 0 0
2973 1 1 0.0 31.744434288732712 16.989497196240023 24.501130791237493 0 0 0
2974 1 1 0.0 30.711599197133438 17.93701503091136 24.414784826565807 0 0 0
2975 1 2 0.0 30.590539773107757 14.696555024017469 22.24833316380109 0 0 0
2976 1 2 0.0 28.743310821705155 16.359178882281565 22.122533143789557 0 0 0
2977 1 2 0.0 28.79240153132074 18.397139127738406 23.49811804731628 0 0 0
2978 1 11 0.0 30.787126134439614 19.077491477404042 25.25110149091062 0 0 0
2982 1 6 0.0 31.330419255983266 18.94632573431563 26.095892696925027 0 0 0
3029 1 1 0.0 28.779209445766522 14.177040258683645 32.27656285003685 0 0 0
3035 1 11 0.0 30.99677401252564 15.108716043842602 31.666506032328655 0 0 0
3036 1 2 0.0 28.69037865984892 13.703614552811736 31.30381288497994 0 0 0
3037 1 6 0.0 31.35393528145881 16.056010861185392 31.62467705039085 0 0 0
3168 1 1 0.0 31.94109537918304 17.591652872868597 28.91305837923717 0 0 0