LAMMPS data file via write_data, version 29 Oct 2020, timestep = 231

9739 atoms
16 atom types
9169 bonds
19 bond types
12129 angles
24 angle types
19475 dihedrals
42 dihedral types

11.246593 53.753407 xlo xhi
11.246593 53.753407 ylo yhi
-18.829000 84.813000 zlo zhi

Masses

1 12.01
2 1.008
3 12.01
4 16
5 14.01
6 1.008
7 16
8 14.01
9 1.008
10 12.01
11 14.01
12 12.01
13 1.008
14 16
15 15.9994000 # OW (oxygen in water)
16  1.0080000 # HW (hydrogen in water)

Pair Coeffs # lj/cut/coul/long/omp

1 0.086 3.39967
2 0.015 2.59964
3 0.086 3.39967
4 0.21 2.95992
5 0.17 3.25
6 0.0157 1.06908
7 0.2104 3.06647
8 0.17 3.25
9 0 0
10 0.086 3.39967
11 0.17 3.25
12 0.086 3.39967
13 0.0157 1.06908
14 0.2104 3.06647
15 0.1020000 3.1880000 # OW
16 0.0000000 0.0000000 # HW

Atoms # full


