LAMMPS data file via write_data, version 29 Oct 2020, timestep = 177

9785 atoms
16 atom types
9210 bonds
19 bond types
12143 angles
24 angle types
19507 dihedrals
42 dihedral types

11.246593 53.753407 xlo xhi
11.246593 53.753407 ylo yhi
-18.755000 84.774000 zlo zhi

Masses

1 12.01
2 1.008
3 12.01
4 16
5 14.01
6 1.008
7 16
8 14.01
9 1.008
10 12.01
11 14.01
12 12.01
13 1.008
14 16
15 15.9994000 # OW (oxygen in water)
16  1.0080000 # HW (hydrogen in water)

Pair Coeffs # lj/cut/coul/long/omp

1 0.086 3.39967
2 0.015 2.59964
3 0.086 3.39967
4 0.21 2.95992
5 0.17 3.25
6 0.0157 1.06908
7 0.2104 3.06647
8 0.17 3.25
9 0 0
10 0.086 3.39967
11 0.17 3.25
12 0.086 3.39967
13 0.0157 1.06908
14 0.2104 3.06647
15 0.1020000 3.1880000 # OW
16 0.0000000 0.0000000 # HW

Atoms # full

 1 1 6 0.157 15.487 18.550 14.351
 2 1 1 0.0078 11.664 18.300 17.363
 3 1 1 0.04 11.679 13.715 14.573
 4 1 4 -0.2763 18.261 15.258 18.663
 5 1 1 -0.0521 12.931 12.177 16.546
 6 1 2 0.0866 14.260 15.175 14.043
 7 1 2 0.0866 12.707 20.921 20.215
 8 1 4 -0.2623 17.448 19.250 13.599
 9 1 1 -0.0632 17.112 14.217 15.660
 10 1 1 0.0077 17.699 15.480 15.851
 11 1 1 -0.0444 17.056 16.629 15.348
 12 1 1 -0.0091 15.795 16.526 14.716
 13 1 8 -0.3506 15.060 17.644 14.245
 14 1 2 0.0896 17.544 17.590 15.468
 15 1 1 -0.0632 13.854 16.811 18.299
 16 1 2 0.0866 14.691 16.264 18.726
 17 1 2 0.0839 15.051 18.528 17.747
 18 1 1 0.04 13.092 11.794 15.188
 19 1 4 -0.2763 12.013 12.806 19.194
 20 1 1 -0.0645 15.220 15.260 14.542
 21 1 1 -0.051 12.354 12.516 14.222
 22 1 2 0.0872 13.389 11.595 17.341
 23 1 1 -0.0801 14.053 18.099 17.771
 24 1 2 0.0839 15.433 13.139 14.831
 25 1 2 0.0866 13.108 19.818 16.844
 26 1 2 0.0866 17.613 13.321 16.016
 27 1 1 -0.0632 12.960 18.832 17.274
 28 1 1 0.0078 12.570 16.237 18.294
 29 1 2 0.0872 12.363 12.178 13.189
 30 1 1 -0.0801 15.880 14.110 14.996
 31 1 1 0.0278 12.264 13.369 16.918
 32 1 10 0.2266 12.140 13.707 18.391
 33 1 6 0.1829 12.408 15.014 19.919
 34 1 11 -0.2514 12.351 14.981 18.908
 35 1 1 0.0078 17.560 11.564 20.017
 36 1 1 -0.0521 11.668 14.143 15.911
 37 1 1 -0.043 11.474 17.002 17.865
 38 1 6 0.157 15.474 18.568 14.343
 39 1 12 0.2765 17.579 20.433 13.370
 40 1 11 -0.2514 17.221 12.763 20.717
 41 1 7 -0.379 16.966 20.968 12.263
 42 1 6 0.157 18.926 19.428 11.558
 43 1 8 -0.3506 19.877 19.611 11.885
 44 1 1 -0.0531 20.928 15.204 19.700
 45 1 2 0.0866 18.967 12.607 18.739
 46 1 1 -0.0632 18.533 11.648 19.003
 47 1 2 0.0871 20.135 14.998 20.413
 48 1 2 0.0866 20.493 14.559 11.970
 49 1 6 0.157 18.942 19.401 11.578
 50 1 1 -0.0801 21.148 16.179 13.238
 51 1 1 0.0277 20.622 15.396 18.337
 52 1 4 -0.2763 18.417 20.623 18.597
 53 1 2 0.0839 20.825 18.572 18.726
 54 1 1 -0.0531 21.677 15.641 17.434
 55 1 10 0.2266 19.181 15.400 17.875
 56 1 1 -0.0521 18.692 20.918 15.636
 57 1 1 -0.0801 21.771 19.068 18.524
 58 1 11 -0.2514 18.949 15.585 16.517
 59 1 2 0.0871 21.434 15.794 16.403
 60 1 10 0.2266 19.047 21.529 18.080
 61 1 1 -0.0092 20.384 20.860 11.500
 62 1 2 0.0895 21.242 21.247 13.404
 63 1 6 0.1829 19.736 15.844 15.938
 64 1 1 0.04 18.348 21.318 14.317
 65 1 2 0.0872 18.774 19.866 15.910
 66 1 1 -0.0645 21.240 14.887 12.689
 67 1 2 0.0866 21.668 18.721 16.410
 68 1 1 -0.0457 21.186 21.593 12.382
 69 1 2 0.0839 20.338 16.844 12.943
 70 1 2 0.0866 19.543 20.395 20.641
 71 1 1 -0.0645 20.131 21.354 10.216
 72 1 2 0.0866 19.416 20.862 9.566
 73 1 2 0.0896 25.109 20.921 17.806
 74 1 6 0.157 22.556 12.595 11.602
 75 1 1 -0.0531 23.264 15.676 19.251
 76 1 11 -0.2514 24.293 21.092 20.386
 77 1 1 0.0277 22.246 15.349 20.165
 78 1 8 -0.3506 24.245 19.541 15.769
 79 1 10 0.2266 24.138 16.251 16.949
 80 1 11 -0.2514 24.087 16.201 15.553
 81 1 1 0.0077 23.110 15.745 14.623
 82 1 1 -0.0091 23.529 19.721 16.978
 83 1 6 0.1829 24.927 16.561 15.113
 84 1 2 0.0866 22.128 19.532 20.598
 85 1 4 -0.2763 25.170 16.668 17.443
 86 1 1 -0.0632 22.508 19.616 19.585
 87 1 6 0.157 23.750 19.219 14.951
 88 1 1 -0.0444 24.186 20.393 18.023
 89 1 2 0.0866 23.279 12.836 19.933
 90 1 2 0.0871 24.262 15.849 19.641
 91 1 1 -0.0444 23.203 14.458 14.059
 92 1 2 0.0896 24.006 13.792 14.359
 93 1 2 0.0839 24.761 13.583 16.979
 94 1 1 -0.0632 22.494 12.277 20.433
 95 1 1 0.0077 23.687 20.342 19.337
 96 1 8 -0.3506 22.380 12.698 12.592
 97 1 1 0.0277 23.007 15.805 17.866
 98 1 2 0.0866 22.040 17.626 14.562
 99 1 1 -0.0645 22.259 19.153 17.210
 100 1 1 -0.0632 22.101 16.617 14.171
 101 1 1 -0.0091 22.278 14.022 13.091
 102 1 7 -0.379 23.862 21.379 13.645
 103 1 6 0.157 23.731 19.216 14.954
 104 1 6 0.157 22.557 12.578 11.596
 105 1 6 0.1829 30.091 15.227 16.541
 106 1 1 -0.0531 30.076 13.975 14.544
 107 1 4 -0.2763 27.539 16.455 15.158
 108 1 10 0.2266 28.017 21.178 18.977
 109 1 1 0.0078 29.694 17.101 17.213
 110 1 1 -0.043 29.025 18.337 17.106
 111 1 1 0.0078 29.462 19.442 17.862
 112 1 11 -0.2514 28.666 20.613 17.889
 113 1 2 0.0896 28.154 18.446 16.468
 114 1 2 0.0866 31.303 16.035 18.189
 115 1 10 0.2266 31.818 12.292 13.841
 116 1 2 0.0866 26.025 12.004 15.577
 117 1 2 0.0866 30.990 20.203 19.205
 118 1 4 -0.2415 25.861 12.565 12.085
 119 1 11 -0.2514 28.039 13.594 20.240
 120 1 1 -0.0531 27.941 19.152 20.512
 121 1 2 0.0871 27.846 18.506 19.645
 122 1 1 -0.0632 26.483 12.399 16.479
 123 1 1 0.0277 28.116 20.536 20.335
 124 1 1 -0.0801 31.291 18.114 18.760
 125 1 1 -0.0801 25.761 13.293 17.284
 126 1 1 -0.0632 30.625 19.344 18.649
 127 1 6 0.1829 28.463 21.021 16.984
 128 1 1 -0.0632 30.798 16.991 18.077
 129 1 2 0.0896 29.317 12.191 18.364
 130 1 12 0.3852 27.011 12.160 12.108
 131 1 6 0.1829 28.037 14.573 20.510
 132 1 1 -0.0507 29.432 12.321 12.905
 133 1 1 0.0278 30.428 12.889 13.731
 134 1 1 -0.0507 27.782 13.888 13.782
 135 1 1 0.0278 28.771 14.498 14.577
 136 1 1 -0.0632 26.314 13.774 18.488
 137 1 10 0.2266 28.469 15.714 15.421
 138 1 2 0.0866 25.736 14.435 19.121
 139 1 2 0.0872 29.678 11.471 12.275
 140 1 2 0.0871 30.836 14.414 15.165
 141 1 1 0.0586 28.100 12.802 12.936
 142 1 1 0.0078 27.581 13.337 18.912
 143 1 2 0.0872 26.758 14.248 13.840
 144 1 11 -0.2514 29.399 15.954 16.428
 145 1 1 -0.043 28.335 12.529 18.050
 146 1 1 0.0078 27.785 12.031 16.857
 147 1 4 -0.2763 31.813 13.211 19.388
 148 1 2 0.0896 32.101 12.496 17.212
 149 1 2 0.0839 32.181 18.027 19.377
 150 1 6 0.1829 32.402 13.627 15.225
 151 1 1 0.0277 14.538 16.774 21.726
 152 1 1 -0.0531 14.636 15.380 21.514
 153 1 2 0.0871 13.731 14.801 21.373
 154 1 6 0.1829 17.984 13.420 20.811
 155 1 10 0.2266 15.959 13.261 21.029
 156 1 4 -0.2763 12.142 16.820 21.760
 157 1 1 -0.0632 12.010 20.840 21.042
 158 1 10 0.2266 13.182 17.456 21.771
 159 1 1 0.0277 15.887 14.724 21.436
 160 1 4 -0.2763 14.949 12.606 20.839
 161 1 1 -0.0531 15.730 17.502 21.924
 162 1 6 0.1829 14.069 19.299 21.610
 163 1 11 -0.2514 13.184 18.845 21.785
 164 1 1 -0.0531 17.050 15.475 21.706
 165 1 2 0.0871 14.953 12.604 28.870
 166 1 4 -0.2763 12.810 15.919 28.634
 167 1 1 -0.0632 16.624 17.893 25.117
 168 1 6 0.1829 13.619 12.488 23.490
 169 1 1 0.0078 15.292 20.372 24.969
 170 1 2 0.0871 12.283 13.181 22.574
 171 1 1 -0.043 16.566 12.778 24.830
 172 1 2 0.0866 17.121 16.929 25.164
 173 1 1 -0.0531 14.040 20.842 31.934
 174 1 2 0.0896 16.742 13.793 24.486
 175 1 11 -0.2514 18.180 18.580 23.374
 176 1 6 0.1829 13.300 12.860 29.207
 177 1 10 0.2266 13.840 14.217 24.582
 178 1 2 0.0871 15.691 18.575 22.072
 179 1 1 0.0078 17.586 12.033 25.443
 180 1 10 0.2266 13.379 14.863 28.851
 181 1 2 0.0839 15.136 17.369 26.584
 182 1 1 -0.0801 15.498 18.138 25.914
 183 1 1 -0.0632 14.822 19.362 25.825
 184 1 10 0.2266 17.821 17.159 28.502
 185 1 1 0.0278 14.006 21.237 30.581
 186 1 1 0.0277 12.484 14.671 24.115
 187 1 11 -0.2514 11.803 20.205 30.254
 188 1 1 -0.0801 17.574 16.121 32.008
 189 1 1 -0.0531 15.539 13.515 28.859
 190 1 4 -0.2763 14.442 14.805 25.466
 191 1 2 0.0866 13.917 19.517 26.408
 192 1 1 -0.0507 15.217 21.566 29.942
 193 1 4 -0.2763 17.310 18.247 28.712
 194 1 1 -0.0507 16.468 20.840 31.899
 195 1 1 0.0078 17.098 18.884 24.244
 196 1 1 -0.0531 11.844 15.721 24.787
 197 1 1 -0.0632 16.383 15.552 32.482
 198 1 1 0.0078 15.301 12.200 24.642
 199 1 1 -0.0531 17.695 14.618 28.757
 200 1 11 -0.2514 14.522 21.566 24.872
 201 1 1 0.0586 16.454 21.336 30.579
 202 1 1 0.0078 12.089 19.743 21.918
 203 1 2 0.0896 16.860 20.922 23.565
 204 1 1 -0.043 16.468 20.145 24.216
 205 1 11 -0.2514 12.714 13.679 29.125
 206 1 11 -0.2514 14.238 12.970 24.127
 207 1 6 0.1829 11.990 19.806 31.164
 208 1 10 0.2266 17.651 12.109 29.009
 209 1 1 0.0277 16.944 13.433 28.872
 210 1 10 0.2266 12.756 21.083 29.748
 211 1 2 0.0872 17.417 20.634 32.388
 212 1 1 -0.0531 15.656 15.931 28.791
 213 1 1 0.0277 17.057 15.876 28.700
 214 1 1 0.0277 14.882 14.761 28.837
 215 1 2 0.0871 15.159 16.896 28.774
 216 1 2 0.0871 12.401 16.262 25.546
 217 1 4 -0.2763 14.715 12.049 31.584
 218 1 10 0.2266 18.239 17.600 22.385
 219 1 4 -0.2763 12.710 21.494 28.599
 220 1 1 0.0277 16.980 16.853 21.997
 221 1 2 0.0896 12.066 18.697 28.072
 222 1 12 0.3852 17.750 21.500 29.833
 223 1 1 -0.0531 11.779 13.965 23.126
 224 1 2 0.0839 17.628 17.190 31.819
 225 1 1 0.0078 11.329 13.401 29.237
 226 1 2 0.0871 18.018 14.986 21.712
 227 1 10 0.2266 14.371 12.572 32.632
 228 1 1 0.0078 16.300 14.170 32.704
 229 1 1 0.0278 13.087 12.179 33.324
 230 1 10 0.2266 15.235 19.960 33.946
 231 1 2 0.0896 13.401 17.806 34.007
 232 1 6 0.1829 16.448 18.432 33.286
 233 1 1 0.0278 15.264 20.594 32.583
 234 1 11 -0.2514 15.855 18.723 34.052
 235 1 11 -0.2514 15.088 13.616 33.195
 236 1 4 -0.2763 12.439 15.747 32.806
 237 1 1 -0.0531 12.123 11.454 32.603
 238 1 6 0.1829 14.644 14.129 33.946
 239 1 2 0.0896 17.361 12.289 32.634
 240 1 10 0.2266 11.708 15.619 33.775
 241 1 1 -0.043 17.423 13.359 32.454
 242 1 2 0.0871 13.116 20.602 32.453
 243 1 2 0.0866 15.513 16.178 32.652
 244 1 6 0.1829 13.929 21.752 25.670
 245 1 2 0.0866 11.693 11.294 28.927
 246 1 4 -0.2623 23.677 21.243 34.487
 247 1 1 -0.0632 20.068 21.276 20.985
 248 1 1 0.0078 21.896 12.773 21.602
 249 1 2 0.0871 21.104 15.850 25.145
 250 1 2 0.0871 18.779 14.553 28.740
 251 1 1 -0.0632 19.466 19.157 26.748
 252 1 2 0.0866 21.338 21.561 31.249
 253 1 1 0.0078 19.936 17.981 27.367
 254 1 1 -0.0632 21.558 19.339 25.527
 255 1 4 -0.2763 18.853 12.014 28.831
 256 1 10 0.2266 20.875 13.183 30.998
 257 1 11 -0.2514 19.072 17.010 27.933
 258 1 6 0.1829 19.359 16.058 27.750
 259 1 10 0.2266 19.434 13.762 25.593
 260 1 2 0.0871 21.053 11.791 26.621
 261 1 6 0.1829 19.585 11.729 25.655
 262 1 1 -0.0632 18.685 15.304 31.740
 263 1 4 -0.2415 18.780 20.956 30.187
 264 1 11 -0.2514 18.918 12.480 25.539
 265 1 4 -0.2763 21.111 14.167 30.321
 266 1 1 0.0277 20.912 13.821 25.858
 267 1 6 0.1829 19.069 18.974 23.654
 268 1 4 -0.2763 18.758 14.769 25.484
 269 1 2 0.0866 19.578 15.766 31.336
 270 1 2 0.0866 18.445 19.499 26.888
 271 1 2 0.0896 20.442 12.405 23.162
 272 1 1 0.0078 18.624 13.913 31.970
 273 1 1 -0.043 20.902 12.022 22.258
 274 1 1 -0.0632 21.411 20.528 31.578
 275 1 2 0.0839 19.931 20.758 25.373
 276 1 2 0.0896 21.636 16.709 27.702
 277 1 1 -0.043 21.266 17.581 27.170
 278 1 11 -0.2514 19.735 13.037 31.784
 279 1 1 -0.0801 20.294 19.853 25.853
 280 1 1 -0.0531 21.591 12.706 26.393
 281 1 1 -0.0801 20.436 21.336 22.334
 282 1 1 -0.0531 21.623 15.010 25.598
 283 1 6 0.1829 19.672 12.179 32.317
 284 1 2 0.0839 20.180 20.507 22.984
 285 1 1 0.0078 21.571 17.848 32.407
 286 1 4 -0.2763 19.322 17.274 21.929
 287 1 11 -0.2514 21.510 16.513 32.873
 288 1 6 0.1829 20.615 16.254 33.263
 289 1 11 -0.2514 20.431 21.157 33.721
 290 1 2 0.0871 20.144 14.903 34.373
 291 1 2 0.0896 20.746 18.528 34.261
 292 1 1 -0.043 21.072 18.828 33.271
 293 1 1 0.0078 20.969 20.166 32.862
 294 1 10 0.2266 22.577 15.194 21.627
 295 1 10 0.2266 24.588 20.625 21.667
 296 1 11 -0.2514 22.401 13.946 22.203
 297 1 2 0.0839 24.599 13.071 23.279
 298 1 2 0.0871 25.020 20.169 24.343
 299 1 10 0.2266 24.344 21.601 26.664
 300 1 10 0.2266 25.280 15.641 29.491
 301 1 6 0.1829 23.930 18.371 25.434
 302 1 1 0.0078 22.035 18.175 26.154
 303 1 1 0.0078 25.156 18.109 29.942
 304 1 1 -0.043 25.082 18.617 28.634
 305 1 1 0.0078 25.203 19.992 28.389
 306 1 11 -0.2514 24.827 16.756 30.168
 307 1 2 0.0896 24.864 17.941 27.818
 308 1 1 -0.0632 21.987 18.208 31.111
 309 1 6 0.1829 22.845 13.800 23.102
 310 1 1 0.0277 22.991 15.116 25.916
 311 1 4 -0.2763 24.835 11.723 27.668
 312 1 1 -0.0531 24.773 21.207 24.143
 313 1 10 0.2266 23.718 11.577 27.209
 314 1 11 -0.2514 25.068 20.483 27.055
 315 1 10 0.2266 23.812 16.367 25.671
 316 1 2 0.0871 23.567 13.336 31.298
 317 1 6 0.1829 23.918 16.638 30.605
 318 1 1 -0.0531 23.240 12.305 31.214
 319 1 2 0.0871 24.714 14.013 26.595
 320 1 4 -0.2763 24.530 14.685 29.405
 321 1 1 -0.0531 23.648 13.970 26.410
 322 1 2 0.0839 22.192 19.836 29.688
 323 1 4 -0.2763 25.010 16.276 25.474
 324 1 1 0.0277 22.966 12.764 26.660
 325 1 11 -0.2514 23.283 17.653 25.726
 326 1 1 0.0277 24.643 21.635 22.796
 327 1 4 -0.2763 23.150 16.071 22.245
 328 1 2 0.0866 22.159 19.834 24.770
 329 1 4 -0.2763 24.605 19.432 21.913
 330 1 2 0.0866 22.350 17.460 30.416
 331 1 1 -0.0801 21.899 19.550 30.696
 332 1 1 0.0278 21.859 12.048 31.079
 333 1 4 -0.2763 23.703 15.933 32.822
 334 1 2 0.0872 24.269 13.744 33.878
 335 1 10 0.2266 22.569 15.693 33.198
 336 1 1 -0.0521 23.267 13.534 34.244
 337 1 1 0.0278 22.249 14.480 34.041
 338 1 1 0.0278 24.169 11.247 31.337
 339 1 1 -0.0632 25.382 18.975 31.026
 340 1 1 -0.0531 28.206 21.363 21.469
 341 1 1 0.0277 27.782 18.598 21.794
 342 1 2 0.0871 32.076 14.632 21.601
 343 1 10 0.2266 28.561 12.719 21.198
 344 1 4 -0.2763 27.437 16.406 20.931
 345 1 6 0.1829 25.502 19.931 26.332
 346 1 1 -0.043 32.133 17.591 31.822
 347 1 1 0.0078 27.205 15.254 23.572
 348 1 1 -0.0531 27.710 16.506 29.235
 349 1 11 -0.2514 27.880 21.221 25.199
 350 1 1 -0.0531 27.040 14.426 28.199
 351 1 1 -0.0632 30.202 13.840 32.068
 352 1 2 0.0871 27.530 17.348 29.893
 353 1 1 -0.0531 27.750 19.465 22.909
 354 1 1 -0.0531 29.340 15.153 28.033
 355 1 6 0.1829 31.309 15.813 22.804
 356 1 2 0.0896 31.128 17.810 32.160
 357 1 6 0.1829 27.447 20.310 25.189
 358 1 1 -0.0632 27.812 14.262 32.232
 359 1 1 -0.0632 31.160 20.304 24.306
 360 1 1 0.0078 27.520 13.316 25.024
 361 1 10 0.2266 28.721 12.867 27.193
 362 1 1 -0.043 28.624 12.309 31.042
 363 1 1 0.0078 27.549 13.088 31.506
 364 1 11 -0.2514 31.069 11.800 31.117
 365 1 2 0.0866 25.414 18.592 32.045
 366 1 1 -0.0801 25.560 13.459 23.593
 367 1 1 0.0078 31.500 19.491 25.401
 368 1 1 0.0277 28.348 14.204 27.752
 369 1 6 0.1829 25.622 13.374 30.794
 370 1 6 0.1829 27.743 17.203 23.966
 371 1 2 0.0871 26.314 13.639 28.053
 372 1 10 0.2266 27.585 17.106 21.917
 373 1 1 -0.0632 26.038 14.663 23.054
 374 1 6 0.1829 31.146 20.881 26.905
 375 1 1 -0.0632 28.666 20.944 27.503
 376 1 2 0.0839 25.650 21.027 31.633
 377 1 11 -0.2514 26.205 12.691 31.260
 378 1 4 -0.2763 29.259 12.031 27.893
 379 1 6 0.1829 31.955 12.291 31.097
 380 1 11 -0.2514 31.748 16.149 23.650
 381 1 2 0.0871 30.365 14.966 27.727
 382 1 2 0.0866 28.957 19.920 27.287
 383 1 1 -0.043 27.929 14.588 24.577
 384 1 1 -0.043 31.653 18.100 25.206
 385 1 6 0.1829 31.062 15.354 29.912
 386 1 1 -0.0801 31.019 19.742 23.026
 387 1 2 0.0839 29.264 20.801 29.584
 388 1 1 -0.0632 31.203 18.363 22.836
 389 1 2 0.0896 28.825 15.047 24.981
 390 1 2 0.0871 27.541 19.054 23.890
 391 1 4 -0.2763 29.123 13.176 22.175
 392 1 11 -0.2514 27.572 16.573 23.196
 393 1 1 0.0277 28.012 20.849 22.766
 394 1 1 0.0078 31.535 17.532 23.919
 395 1 10 0.2266 25.641 11.471 31.608
 396 1 1 0.0277 26.688 15.575 28.934
 397 1 2 0.0839 32.006 13.386 27.350
 398 1 1 0.0277 29.035 16.276 28.821
 399 1 1 -0.0632 25.427 20.857 29.481
 400 1 2 0.0896 31.896 17.469 26.055
 401 1 1 -0.0801 25.510 20.352 30.793
 402 1 2 0.0866 25.468 15.168 22.283
 403 1 1 -0.0801 28.830 21.432 28.811
 404 1 11 -0.2514 28.314 12.549 25.912
 405 1 2 0.0866 25.978 11.801 24.915
 406 1 1 0.0078 32.292 16.840 30.646
 407 1 11 -0.2514 31.165 16.361 29.939
 408 1 10 0.2266 30.143 17.109 29.385
 409 1 11 -0.2514 31.739 20.095 26.670
 410 1 4 -0.2763 30.065 18.321 29.489
 411 1 1 -0.0632 26.322 12.763 24.543
 412 1 1 0.0078 29.954 12.648 31.368
 413 1 2 0.0866 31.024 21.374 24.442
 414 1 2 0.0839 30.767 20.373 22.179
 415 1 2 0.0866 31.096 17.940 21.840
 416 1 10 0.2266 28.178 21.766 23.959
 417 1 1 0.0078 28.124 21.766 26.493
 418 1 2 0.0896 28.400 11.426 30.460
 419 1 6 0.1829 28.510 11.601 25.613
 420 1 1 -0.0531 32.442 13.779 22.166
 421 1 2 0.0866 31.223 14.123 32.316
 422 1 2 0.0839 29.343 15.550 33.064
 423 1 1 -0.0801 29.137 14.645 32.500
 424 1 4 -0.2763 30.990 19.583 33.729
 425 1 10 0.2266 32.107 19.582 34.213
 426 1 2 0.0866 26.989 14.872 32.594
 427 1 2 0.0866 17.237 17.228 35.869
 428 1 6 0.1829 14.728 19.632 37.853
 429 1 1 0.04 11.589 12.167 35.274
 430 1 4 -0.2763 14.467 19.855 40.970
 431 1 1 -0.0801 15.638 15.945 36.568
 432 1 2 0.0866 18.105 12.466 38.646
 433 1 1 -0.0632 17.254 19.572 38.097
 434 1 1 0.0078 16.366 20.388 38.807
 435 1 2 0.0871 16.954 21.722 35.406
 436 1 2 0.0872 12.570 19.743 37.599
 437 1 2 0.0866 16.896 18.661 37.639
 438 1 1 -0.0632 16.011 14.006 42.851
 439 1 1 -0.0521 12.821 12.505 34.673
 440 1 11 -0.2514 14.998 20.013 38.752
 441 1 2 0.0866 12.101 12.719 41.984
 442 1 2 0.0839 16.261 15.432 37.297
 443 1 1 -0.0531 12.792 17.551 40.199
 444 1 10 0.2266 14.181 19.634 39.804
 445 1 1 0.04 11.352 17.968 37.816
 446 1 2 0.0872 13.576 13.015 35.263
 447 1 1 0.0078 15.364 17.675 34.878
 448 1 4 -0.2623 11.833 13.515 37.244
 449 1 1 0.0078 13.495 16.195 35.430
 450 1 2 0.0866 17.147 18.591 41.982
 451 1 2 0.0871 13.361 17.383 41.109
 452 1 6 0.1829 17.426 13.132 36.148
 453 1 1 -0.0521 12.357 18.874 38.213
 454 1 2 0.0866 13.902 14.755 37.013
 455 1 2 0.0866 16.546 14.293 41.949
 456 1 1 0.0278 13.079 18.681 39.407
 457 1 1 0.0278 11.819 16.606 39.809
 458 1 1 -0.043 14.024 17.288 34.729
 459 1 12 0.2765 11.298 12.569 36.699
 460 1 1 -0.0632 16.186 16.970 35.773
 461 1 2 0.0839 14.090 14.211 41.919
 462 1 11 -0.2514 12.194 15.731 35.078
 463 1 1 -0.0632 14.292 15.564 36.407
 464 1 4 -0.2763 14.413 20.313 34.772
 465 1 1 -0.0801 14.614 13.963 42.835
 466 1 4 -0.2763 11.939 15.399 41.861
 467 1 2 0.0839 12.859 11.430 38.753
 468 1 6 0.1829 11.543 15.592 35.841
 469 1 1 -0.0632 18.102 18.687 42.493
 470 1 1 -0.043 16.841 21.578 39.400
 471 1 10 0.2266 11.553 15.413 40.705
 472 1 2 0.0866 12.818 13.630 43.978
 473 1 1 -0.0801 14.442 17.223 44.201
 474 1 1 0.0078 16.714 13.719 44.029
 475 1 1 -0.0531 14.514 20.876 45.310
 476 1 11 -0.2514 14.370 15.733 47.575
 477 1 6 0.1829 16.347 20.126 43.859
 478 1 7 -0.2415 18.043 12.270 48.189
 479 1 4 -0.2763 17.198 18.710 46.546
 480 1 2 0.0871 14.728 20.847 44.247
 481 1 1 -0.0521 13.070 21.575 47.131
 482 1 2 0.0866 15.746 15.964 45.370
 483 1 4 -0.2763 15.252 11.579 47.478
 484 1 10 0.2266 14.165 12.118 47.408
 485 1 1 -0.0632 13.256 17.970 44.199
 486 1 1 0.0078 18.143 19.120 43.830
 487 1 6 0.1829 11.807 19.942 45.702
 488 1 1 -0.043 16.002 13.322 45.183
 489 1 1 0.0078 14.586 13.254 45.172
 490 1 2 0.0896 16.555 13.103 46.086
 491 1 11 -0.2514 11.464 19.033 45.417
 492 1 2 0.0871 11.422 12.534 47.400
 493 1 1 -0.0521 14.982 20.153 47.583
 494 1 1 0.04 13.849 20.851 48.047
 495 1 1 -0.0632 13.904 13.615 43.996
 496 1 6 0.1829 14.745 14.826 47.325
 497 1 11 -0.2514 16.950 19.572 44.451
 498 1 1 0.0278 15.327 20.156 46.216
 499 1 11 -0.2514 18.127 13.861 43.984
 500 1 1 0.0278 13.396 21.608 45.766
 501 1 2 0.0896 12.210 17.363 47.402
 502 1 11 -0.2514 13.806 12.903 46.319
 503 1 6 0.1829 12.863 13.275 46.317
 504 1 1 -0.0632 14.815 16.521 45.353
 505 1 1 0.0078 12.468 18.045 45.357
 506 1 1 0.0078 13.994 16.538 46.487
 507 1 10 0.2266 16.560 19.402 45.771
 508 1 1 -0.043 12.819 17.308 46.502
 509 1 2 0.0839 15.085 17.208 43.328
 510 1 2 0.0866 12.984 18.558 43.329
 511 1 2 0.0872 16.407 14.282 48.149
 512 1 2 0.0866 13.670 11.260 41.095
 513 1 2 0.0866 21.451 18.316 41.927
 514 1 11 -0.2514 20.497 17.211 38.430
 515 1 1 -0.0632 19.562 15.364 39.702
 516 1 10 0.2266 19.424 21.007 34.661
 517 1 11 -0.2514 18.408 13.377 36.153
 518 1 1 0.0278 20.646 12.946 35.108
 519 1 1 -0.0801 18.584 19.955 37.920
 520 1 4 -0.2763 18.775 19.979 34.776
 521 1 2 0.0839 19.238 19.347 37.306
 522 1 2 0.0866 20.076 21.427 38.273
 523 1 1 -0.0801 18.922 14.118 39.768
 524 1 1 -0.0632 18.570 13.447 38.585
 525 1 10 0.2266 19.214 12.552 35.383
 526 1 1 0.0078 18.813 14.047 37.335
 527 1 1 -0.043 19.399 15.321 37.279
 528 1 1 0.0078 19.820 15.964 38.459
 529 1 2 0.0871 20.438 13.371 42.807
 530 1 2 0.0839 19.256 18.087 40.768
 531 1 2 0.0866 19.871 15.854 40.620
 532 1 1 -0.0801 19.292 18.404 41.804
 533 1 2 0.0896 19.532 15.803 36.318
 534 1 2 0.0839 18.715 13.667 40.734
 535 1 10 0.2266 21.421 17.647 37.492
 536 1 1 -0.0632 19.053 21.147 38.481
 537 1 6 0.1829 20.306 17.825 39.210
 538 1 1 -0.0632 20.528 18.537 42.455
 539 1 1 -0.0531 20.952 14.199 34.536
 540 1 4 -0.2763 18.736 11.557 34.867
 541 1 1 -0.0521 21.663 11.976 35.192
 542 1 4 -0.2763 21.716 16.993 36.506
 543 1 2 0.0871 21.821 18.985 39.881
 544 1 2 0.0871 20.465 16.480 45.807
 545 1 1 0.0277 20.312 14.838 44.400
 546 1 4 -0.2763 18.615 14.651 46.074
 547 1 1 0.0078 20.574 18.930 43.803
 548 1 2 0.0896 19.431 19.508 45.530
 549 1 1 -0.0632 21.701 19.696 48.120
 550 1 10 0.2266 18.985 14.369 44.947
 551 1 11 -0.2514 21.801 18.967 44.509
 552 1 1 -0.043 19.384 19.213 44.488
 553 1 1 -0.0531 20.924 15.975 44.960
 554 1 2 0.0866 21.043 19.455 47.292
 555 1 4 -0.2415 20.479 11.331 44.206
 556 1 4 -0.2763 19.100 21.123 47.652
 557 1 1 -0.0531 20.893 14.248 43.255
 558 1 7 -0.2415 20.360 11.462 46.424
 559 1 6 0.1829 18.515 13.820 43.052
 560 1 1 -0.0531 22.151 19.556 39.022
 561 1 10 0.2266 22.549 14.219 41.343
 562 1 2 0.0871 24.718 18.644 38.770
 563 1 6 0.1829 23.701 15.894 41.031
 564 1 1 0.04 23.074 21.009 36.798
 565 1 6 0.1829 25.365 12.229 42.085
 566 1 11 -0.2514 24.932 12.232 42.996
 567 1 6 0.1829 24.454 16.372 35.408
 568 1 1 -0.0632 24.763 13.454 39.222
 569 1 1 0.0078 24.092 14.675 39.411
 570 1 1 -0.043 24.135 15.648 38.403
 571 1 1 0.0078 24.850 15.422 37.215
 572 1 11 -0.2514 24.981 16.468 36.269
 573 1 2 0.0871 23.451 16.443 42.736
 574 1 2 0.0896 23.648 16.602 38.562
 575 1 1 -0.0521 22.523 19.727 36.634
 576 1 4 -0.2763 22.240 20.889 41.548
 577 1 2 0.0866 24.763 12.707 40.008
 578 1 4 -0.2763 24.536 18.251 41.435
 579 1 1 0.0278 22.033 19.001 37.732
 580 1 1 -0.0521 23.165 21.556 38.094
 581 1 1 0.0278 22.730 20.827 39.221
 582 1 11 -0.2514 23.461 14.991 40.640
 583 1 7 -0.379 25.306 11.661 34.878
 584 1 10 0.2266 22.857 21.382 40.621
 585 1 2 0.0872 22.458 19.298 35.639
 586 1 1 0.04 22.977 12.269 34.782
 587 1 4 -0.2763 22.137 13.158 40.906
 588 1 12 0.2765 23.561 21.755 35.585
 589 1 1 0.0277 22.024 14.812 42.630
 590 1 6 0.1829 24.040 14.290 47.398
 591 1 1 -0.0531 22.603 15.960 43.204
 592 1 1 0.0078 25.184 13.413 43.743
 593 1 2 0.0896 24.493 12.721 45.686
 594 1 1 -0.043 24.932 13.539 45.122
 595 1 2 0.0866 24.118 21.329 43.213
 596 1 10 0.2266 22.571 17.866 44.835
 597 1 1 0.0277 22.057 16.544 44.357
 598 1 4 -0.2763 23.518 17.958 45.593
 599 1 1 0.0078 25.225 14.744 45.785
 600 1 11 -0.2514 24.825 14.869 47.133
 601 1 6 0.1829 22.034 19.840 44.964
 602 1 4 -0.2623 29.121 21.647 46.663
 603 1 1 -0.0632 32.466 12.703 42.677
 604 1 1 -0.0801 25.458 13.209 38.025
 605 1 1 -0.0632 25.490 14.186 37.016
 606 1 9 0.2886 31.414 16.999 40.198
 607 1 2 0.0871 30.938 13.112 39.680
 608 1 7 -0.379 30.465 17.148 40.354
 609 1 1 -0.0531 31.406 20.116 36.564
 610 1 4 -0.2623 30.590 16.991 38.139
 611 1 1 0.0278 31.692 20.563 37.871
 612 1 11 -0.2514 26.086 19.620 42.315
 613 1 2 0.0839 28.730 13.873 35.793
 614 1 2 0.0872 28.306 18.306 41.129
 615 1 2 0.0866 26.037 13.993 36.097
 616 1 1 -0.043 28.482 11.591 42.281
 617 1 1 -0.043 32.107 12.000 36.230
 618 1 1 -0.0521 27.794 18.202 40.174
 619 1 1 0.0078 32.092 13.404 36.205
 620 1 1 0.0078 27.009 20.700 42.295
 621 1 6 0.1829 27.400 11.975 39.576
 622 1 1 0.0278 26.420 17.826 37.742
 623 1 1 0.0078 28.615 12.443 41.168
 624 1 10 0.2266 25.682 17.649 36.448
 625 1 1 -0.0531 25.768 18.389 38.848
 626 1 1 -0.0801 29.674 13.352 35.907
 627 1 1 -0.0531 31.412 12.135 39.643
 628 1 1 -0.0801 27.427 21.798 35.684
 629 1 1 -0.0632 30.862 14.080 36.090
 630 1 2 0.0896 26.770 21.238 40.206
 631 1 2 0.0866 28.793 11.383 35.704
 632 1 12 0.2765 29.927 17.260 39.123
 633 1 1 -0.0632 29.707 11.950 35.863
 634 1 1 -0.0632 28.864 13.813 41.359
 635 1 2 0.0866 25.911 14.425 41.978
 636 1 1 0.04 28.473 17.652 39.061
 637 1 1 -0.0632 27.762 21.149 36.885
 638 1 1 -0.0801 28.933 14.336 42.659
 639 1 1 -0.043 27.204 21.518 41.160
 640 1 2 0.0866 28.979 14.476 40.505
 641 1 1 -0.0521 27.771 17.465 37.852
 642 1 1 0.0278 26.430 18.550 40.075
 643 1 4 -0.2763 25.648 18.539 35.619
 644 1 1 0.0078 28.883 21.567 37.621
 645 1 2 0.0872 28.272 17.035 36.989
 646 1 11 -0.2514 29.356 20.832 38.735
 647 1 2 0.0866 27.198 20.280 37.198
 648 1 4 -0.2763 31.021 20.231 40.130
 649 1 10 0.2266 25.589 18.843 41.284
 650 1 2 0.0871 30.452 19.639 36.348
 651 1 10 0.2266 30.675 20.477 38.989
 652 1 1 0.0278 32.362 20.237 35.539
 653 1 2 0.0866 30.818 15.162 36.130
 654 1 1 -0.0632 25.723 14.505 43.043
 655 1 2 0.0839 25.981 12.267 37.881
 656 1 1 0.0078 30.917 11.271 36.063
 657 1 2 0.0839 29.098 15.399 42.812
 658 1 11 -0.2514 28.368 11.935 39.871
 659 1 2 0.0839 26.580 21.446 35.099
 660 1 6 0.1829 28.717 20.765 39.518
 661 1 1 -0.043 32.505 15.113 42.906
 662 1 6 0.1829 25.560 19.557 43.178
 663 1 2 0.0839 31.824 11.596 44.423
 664 1 6 0.1829 28.845 11.660 45.570
 665 1 10 0.2266 25.402 15.590 48.158
 666 1 4 -0.2763 30.468 17.269 44.253
 667 1 1 -0.0801 31.999 12.577 43.996
 668 1 11 -0.2514 28.358 11.320 44.751
 669 1 1 -0.0632 28.754 13.491 43.766
 670 1 2 0.0866 27.381 20.497 44.422
 671 1 1 -0.0521 30.666 19.232 46.310
 672 1 1 0.0078 32.122 14.973 44.248
 673 1 2 0.0871 27.465 11.771 47.249
 674 1 1 -0.0632 27.550 21.097 43.530
 675 1 1 -0.0632 31.814 13.719 44.783
 676 1 1 -0.0632 25.789 15.822 45.079
 677 1 2 0.0839 26.446 16.538 43.149
 678 1 11 -0.2514 32.198 16.072 45.111
 679 1 2 0.0866 25.997 16.764 45.578
 680 1 1 0.04 30.748 20.062 47.430
 681 1 1 0.0078 28.533 12.116 43.587
 682 1 1 0.0278 31.474 18.092 46.241
 683 1 12 0.2765 29.817 21.196 47.547
 684 1 2 0.0866 31.493 13.629 45.818
 685 1 10 0.2266 31.342 17.151 45.092
 686 1 4 -0.2763 26.479 16.157 48.055
 687 1 1 -0.0801 26.031 15.703 43.704
 688 1 2 0.0872 29.937 19.448 45.533
 689 1 1 -0.0521 32.274 17.756 47.342
 690 1 2 0.0866 28.775 13.910 44.768
 691 1 1 0.04 13.767 18.435 55.444
 692 1 8 -0.3506 16.540 16.361 52.711
 693 1 12 0.2765 14.495 17.214 56.031
 694 1 1 -0.051 12.602 18.446 54.639
 695 1 1 -0.051 14.233 19.700 55.795
 696 1 4 -0.2623 13.949 16.789 57.033
 697 1 2 0.0872 11.966 17.573 54.560
 698 1 6 0.157 16.618 15.431 52.318
 699 1 1 0.04 13.940 20.899 55.016
 700 1 4 -0.2623 14.643 13.527 54.105
 701 1 8 -0.3506 11.364 14.580 55.054
 702 1 2 0.0872 15.042 19.646 56.528
 703 1 6 0.157 16.633 15.438 52.327
 704 1 7 -0.379 14.069 19.957 50.284
 705 1 4 -0.2763 14.264 17.217 49.312
 706 1 12 0.2765 13.437 20.847 49.492
 707 1 1 -0.0645 11.700 14.351 52.634
 708 1 1 0.04 12.294 19.585 53.850
 709 1 1 0.0278 13.183 12.008 48.553
 710 1 2 0.0839 12.035 14.473 50.488
 711 1 2 0.0866 12.606 13.796 52.806
 712 1 10 0.2266 14.530 16.108 48.887
 713 1 9 0.2886 14.826 19.616 49.780
 714 1 1 -0.0507 13.643 11.595 49.826
 715 1 1 -0.0531 11.807 12.269 48.379
 716 1 1 -0.0645 17.500 18.179 53.267
 717 1 1 -0.0496 16.264 12.983 51.244
 718 1 1 0.0586 16.732 13.197 49.963
 719 1 1 -0.0507 16.093 14.165 49.177
 720 1 1 0.04 15.320 13.831 51.830
 721 1 1 -0.0521 14.730 14.869 51.074
 722 1 1 0.0278 15.110 15.019 49.729
 723 1 2 0.0872 14.108 15.638 51.544
 724 1 2 0.0866 16.522 18.576 53.546
 725 1 12 0.3852 17.919 12.398 49.520
 726 1 1 -0.0091 17.672 16.816 53.347
 727 1 1 -0.051 13.070 20.749 53.937
 728 1 1 -0.0801 18.236 18.809 52.268
 729 1 2 0.0839 17.855 19.741 51.870
 730 1 2 0.0872 12.987 21.553 53.200
 731 1 2 0.0872 14.694 11.362 49.959
 732 1 1 0.0586 12.759 11.456 50.917
 733 1 2 0.0872 15.605 19.605 48.284
 734 1 2 0.0873 16.782 12.255 51.865
 735 1 12 0.2765 15.480 13.880 53.305
 736 1 1 -0.0507 11.401 11.725 50.711
 737 1 4 -0.2623 12.608 21.618 49.943
 738 1 2 0.0866 16.198 21.497 49.848
 739 1 7 -0.379 15.872 17.384 56.122
 740 1 7 -0.379 16.810 13.871 53.588
 741 1 6 0.157 15.379 21.310 53.196
 742 1 7 -0.379 15.853 21.373 55.163
 743 1 1 -0.0802 11.392 14.730 51.317
 744 1 6 0.157 15.388 21.323 53.191
 745 1 8 -0.3506 15.531 21.412 52.205
 746 1 12 0.2765 21.571 11.687 54.082
 747 1 4 -0.2763 20.368 14.599 50.324
 748 1 1 -0.0632 19.374 18.179 51.723
 749 1 2 0.0896 19.072 15.131 53.185
 750 1 11 -0.2514 20.992 16.309 51.742
 751 1 10 0.2266 21.233 15.192 50.941
 752 1 2 0.0866 19.951 18.704 50.976
 753 1 1 0.0077 19.753 16.885 52.139
 754 1 4 -0.2415 18.683 11.850 50.299
 755 1 1 -0.0444 18.883 16.187 52.984
 756 1 1 0.0077 21.818 21.021 48.579
 757 1 6 0.1829 21.803 16.766 52.141
 758 1 4 -0.2623 20.852 12.529 53.583
 759 1 4 -0.2623 24.699 16.132 54.198
 760 1 1 0.0401 24.578 19.400 54.559
 761 1 1 -0.051 24.603 19.473 55.955
 762 1 2 0.0872 23.645 19.606 56.468
 763 1 1 -0.0645 23.362 18.991 49.733
 764 1 8 -0.3506 24.448 20.671 51.113
 765 1 2 0.0872 22.953 14.748 52.900
 766 1 1 0.0278 22.689 14.875 50.778
 767 1 2 0.0872 22.606 12.252 51.533
 768 1 12 0.2765 23.194 19.581 54.022
 769 1 1 -0.0091 23.496 20.319 50.160
 770 1 1 -0.0531 23.329 15.044 49.536
 771 1 4 -0.2623 22.298 18.832 54.387
 772 1 1 -0.0444 22.706 21.330 49.610
 773 1 4 -0.2763 25.026 12.263 49.640
 774 1 2 0.0866 23.974 18.212 50.170
 775 1 2 0.0871 22.725 15.066 48.637
 776 1 1 -0.0521 23.459 14.794 51.940
 777 1 1 -0.0521 23.181 11.508 52.071
 778 1 1 0.04 24.731 15.344 51.911
 779 1 1 0.0278 24.701 15.381 49.472
 780 1 6 0.157 24.258 20.440 52.070
 781 1 1 -0.0801 22.452 18.675 48.717
 782 1 6 0.157 24.244 20.432 52.073