LAMMPS data file via write_data, version 29 Oct 2020, timestep = 38

9784 atoms
16 atom types
9209 bonds
19 bond types
12142 angles
24 angle types
19505 dihedrals
42 dihedral types

11.236000 53.796000 xlo xhi
11.210000 53.798000 ylo yhi
-18.794000 84.806000 zlo zhi

Masses

1 12.01
2 1.008
3 12.01
4 16
5 14.01
6 1.008
7 16
8 14.01
9 1.008
10 12.01
11 14.01
12 12.01
13 1.008
14 16
15 15.9994000 # OW (oxygen in water)
16  1.0080000 # HW (hydrogen in water)


Pair Coeffs # lj/cut/coul/long/omp

1 0.086 3.39967
2 0.015 2.59964
3 0.086 3.39967
4 0.21 2.95992
5 0.17 3.25
6 0.0157 1.06908
7 0.2104 3.06647
8 0.17 3.25
9 0 0
10 0.086 3.39967
11 0.17 3.25
12 0.086 3.39967
13 0.0157 1.06908
14 0.2104 3.06647
15 0.1020000 3.1880000 # OW
16 0.0000000 0.0000000 # HW

Atoms # full

 1 1 6 0.157 15.475 18.524 14.361
 2 1 1 0.0078 11.660 18.306 17.367
 3 1 1 0.04 11.631 13.680 14.551
 4 1 4 -0.2763 18.261 15.299 18.661
 5 1 1 -0.0521 12.880 12.189 16.593
 6 1 2 0.0866 14.264 15.183 14.041
 7 1 2 0.0866 12.699 20.920 20.218
 8 1 4 -0.2623 17.502 19.147 13.745
 9 1 1 -0.0632 17.114 14.218 15.653
 10 1 1 0.0077 17.700 15.475 15.858
 11 1 1 -0.0444 17.065 16.627 15.353
 12 1 1 -0.0091 15.801 16.535 14.716
 13 1 8 -0.3506 15.058 17.644 14.224
 14 1 2 0.0896 17.597 17.564 15.439
 15 1 1 -0.0632 13.860 16.815 18.324
 16 1 2 0.0866 14.685 16.250 18.773
 17 1 2 0.0839 15.058 18.529 17.743
 18 1 1 0.04 12.994 11.762 15.259
 19 1 4 -0.2763 11.996 12.817 19.172
 20 1 1 -0.0645 15.222 15.270 14.545
 21 1 1 -0.051 12.323 12.484 14.241
 22 1 2 0.0872 13.341 11.611 17.394
 23 1 1 -0.0801 14.055 18.104 17.778
 24 1 2 0.0839 15.414 13.151 14.818
 25 1 2 0.0866 13.072 19.816 16.813
 26 1 2 0.0866 17.624 13.327 16.008
 27 1 1 -0.0632 12.954 18.833 17.270
 28 1 1 0.0078 12.574 16.247 18.305
 29 1 2 0.0872 12.354 12.125 13.212
 30 1 1 -0.0801 15.882 14.115 14.984
 31 1 1 0.0278 12.245 13.400 16.917
 32 1 10 0.2266 12.121 13.730 18.383
 33 1 6 0.1829 12.437 15.007 19.921
 34 1 11 -0.2514 12.358 14.991 18.912
 35 1 1 0.0078 17.569 11.565 20.018
 36 1 1 -0.0521 11.644 14.148 15.886
 37 1 1 -0.043 11.475 17.006 17.866
 38 1 6 0.157 15.403 18.623 14.315
 39 1 12 0.2765 17.691 20.277 13.386
 40 1 11 -0.2514 17.234 12.771 20.723
 41 1 7 -0.379 17.205 20.475 12.032
 42 1 6 0.157 18.901 19.481 11.562
 43 1 8 -0.3506 19.892 19.606 11.850
 44 1 1 -0.0531 20.938 15.188 19.697
 45 1 2 0.0866 18.982 12.592 18.738
 46 1 1 -0.0632 18.537 11.638 19.001
 47 1 2 0.0871 20.139 14.999 20.408
 48 1 2 0.0866 20.477 14.569 11.971
 49 1 6 0.157 18.949 19.405 11.608
 50 1 1 -0.0801 21.139 16.186 13.241
 51 1 1 0.0277 20.631 15.393 18.335
 52 1 4 -0.2763 18.412 20.630 18.617
 53 1 2 0.0839 20.825 18.568 18.721
 54 1 1 -0.0531 21.687 15.624 17.429
 55 1 10 0.2266 19.187 15.411 17.874
 56 1 1 -0.0521 18.723 20.895 15.665
 57 1 1 -0.0801 21.774 19.058 18.521
 58 1 11 -0.2514 18.961 15.551 16.511
 59 1 2 0.0871 21.439 15.800 16.401
 60 1 10 0.2266 19.037 21.536 18.094
 61 1 1 -0.0092 20.377 20.885 11.526
 62 1 2 0.0895 21.285 21.212 13.424
 63 1 6 0.1829 19.738 15.875 15.951
 64 1 1 0.04 18.406 21.264 14.330
 65 1 2 0.0872 18.853 19.845 15.935
 66 1 1 -0.0645 21.232 14.897 12.681
 67 1 2 0.0866 21.588 18.743 16.442
 68 1 1 -0.0457 21.194 21.599 12.414
 69 1 2 0.0839 20.321 16.854 12.964
 70 1 2 0.0866 19.544 20.423 20.632
 71 1 1 -0.0645 20.099 21.405 10.256
 72 1 2 0.0866 19.421 20.883 9.594
 73 1 2 0.0896 25.088 20.936 17.770
 74 1 6 0.157 22.579 12.592 11.603
 75 1 1 -0.0531 23.276 15.644 19.250
 76 1 11 -0.2514 24.286 21.112 20.376
 77 1 1 0.0277 22.257 15.329 20.171
 78 1 8 -0.3506 24.244 19.562 15.752
 79 1 10 0.2266 24.146 16.240 16.954
 80 1 11 -0.2514 24.081 16.201 15.558
 81 1 1 0.0077 23.106 15.741 14.624
 82 1 1 -0.0091 23.514 19.720 16.960
 83 1 6 0.1829 24.914 16.567 15.114
 84 1 2 0.0866 22.133 19.525 20.583
 85 1 4 -0.2763 25.169 16.679 17.450
 86 1 1 -0.0632 22.517 19.607 19.574
 87 1 6 0.157 23.811 19.235 14.920
 88 1 1 -0.0444 24.173 20.398 18.003
 89 1 2 0.0866 23.279 12.843 19.934
 90 1 2 0.0871 24.272 15.829 19.640
 91 1 1 -0.0444 23.204 14.459 14.042
 92 1 2 0.0896 24.010 13.796 14.346
 93 1 2 0.0839 24.772 13.547 16.940
 94 1 1 -0.0632 22.482 12.291 20.425
 95 1 1 0.0077 23.687 20.347 19.324
 96 1 8 -0.3506 22.347 12.694 12.570
 97 1 1 0.0277 23.018 15.780 17.865
 98 1 2 0.0866 22.040 17.625 14.565
 99 1 1 -0.0645 22.241 19.149 17.207
 100 1 1 -0.0632 22.100 16.617 14.170
 101 1 1 -0.0091 22.278 14.028 13.065
 102 1 7 -0.379 23.035 22.034 14.423
 103 1 6 0.157 23.728 19.217 14.928
 104 1 6 0.157 22.581 12.522 11.579
 105 1 6 0.1829 30.095 15.233 16.538
 106 1 1 -0.0531 30.086 13.960 14.533
 107 1 4 -0.2763 27.552 16.462 15.145
 108 1 10 0.2266 28.015 21.175 18.982
 109 1 1 0.0078 29.690 17.106 17.216
 110 1 1 -0.043 29.026 18.344 17.109
 111 1 1 0.0078 29.464 19.447 17.866
 112 1 11 -0.2514 28.667 20.618 17.891
 113 1 2 0.0896 28.161 18.456 16.463
 114 1 2 0.0866 31.282 16.029 18.195
 115 1 10 0.2266 31.773 12.181 13.810
 116 1 2 0.0866 26.000 12.017 15.600
 117 1 2 0.0866 31.001 20.202 19.204
 118 1 4 -0.2623 25.868 12.572 12.066
 119 1 11 -0.2514 28.039 13.606 20.242
 120 1 1 -0.0531 27.960 19.145 20.512
 121 1 2 0.0871 27.845 18.506 19.642
 122 1 1 -0.0632 26.481 12.402 16.491
 123 1 1 0.0277 28.132 20.528 20.335
 124 1 1 -0.0801 31.295 18.113 18.757
 125 1 1 -0.0801 25.765 13.299 17.287
 126 1 1 -0.0632 30.631 19.345 18.650
 127 1 6 0.1829 28.460 21.018 16.983
 128 1 1 -0.0632 30.790 16.991 18.084
 129 1 2 0.0896 29.298 12.171 18.350
 130 1 12 0.2765 27.001 12.129 12.137
 131 1 6 0.1829 28.044 14.582 20.530
 132 1 1 -0.0521 29.427 12.336 12.869
 133 1 1 0.0278 30.427 12.872 13.704
 134 1 1 -0.0521 27.782 13.888 13.775
 135 1 1 0.0278 28.775 14.486 14.578
 136 1 1 -0.0632 26.302 13.807 18.489
 137 1 10 0.2266 28.472 15.710 15.420
 138 1 2 0.0866 25.703 14.468 19.110
 139 1 2 0.0872 29.649 11.449 12.283
 140 1 2 0.0871 30.845 14.388 15.171
 141 1 1 0.04 28.100 12.819 12.909
 142 1 1 0.0078 27.575 13.368 18.911
 143 1 2 0.0872 26.748 14.217 13.865
 144 1 11 -0.2514 29.406 15.961 16.420
 145 1 1 -0.043 28.325 12.541 18.046
 146 1 1 0.0078 27.780 12.028 16.857
 147 1 4 -0.2763 31.809 13.197 19.381
 148 1 2 0.0896 32.110 12.499 17.197
 149 1 2 0.0839 32.192 18.023 19.364
 150 1 6 0.1829 32.412 13.576 15.157
 151 1 1 0.0277 14.535 16.779 21.726
 152 1 1 -0.0531 14.635 15.386 21.512
 153 1 2 0.0871 13.734 14.791 21.413
 154 1 6 0.1829 17.995 13.440 20.832
 155 1 10 0.2266 15.966 13.257 21.056
 156 1 4 -0.2763 12.135 16.824 21.760
 157 1 1 -0.0632 12.002 20.836 21.046
 158 1 10 0.2266 13.174 17.459 21.775
 159 1 1 0.0277 15.885 14.730 21.430
 160 1 4 -0.2763 14.953 12.619 20.821
 161 1 1 -0.0531 15.731 17.503 21.919
 162 1 6 0.1829 14.047 19.299 21.584
 163 1 11 -0.2514 13.171 18.846 21.799
 164 1 1 -0.0531 17.051 15.473 21.691
 165 1 2 0.0871 14.928 12.618 28.865
 166 1 4 -0.2763 12.817 15.911 28.639
 167 1 1 -0.0632 16.619 17.900 25.106
 168 1 6 0.1829 13.617 12.489 23.489
 169 1 1 0.0078 15.298 20.381 24.981
 170 1 2 0.0871 12.270 13.193 22.582
 171 1 1 -0.043 16.563 12.786 24.836
 172 1 2 0.0866 17.127 16.944 25.156
 173 1 1 -0.0531 14.040 20.855 31.932
 174 1 2 0.0896 16.740 13.797 24.485
 175 1 11 -0.2514 18.192 18.583 23.379
 176 1 6 0.1829 13.312 12.838 29.187
 177 1 10 0.2266 13.837 14.219 24.583
 178 1 2 0.0871 15.688 18.575 22.061
 179 1 1 0.0078 17.582 12.044 25.451
 180 1 10 0.2266 13.388 14.855 28.851
 181 1 2 0.0839 15.155 17.385 26.619
 182 1 1 -0.0801 15.501 18.140 25.919
 183 1 1 -0.0632 14.822 19.362 25.827
 184 1 10 0.2266 17.826 17.153 28.506
 185 1 1 0.0278 14.005 21.254 30.584
 186 1 1 0.0277 12.488 14.689 24.103
 187 1 11 -0.2514 11.801 20.213 30.267
 188 1 1 -0.0801 17.575 16.128 32.023
 189 1 1 -0.0531 15.535 13.514 28.853
 190 1 4 -0.2763 14.437 14.792 25.478
 191 1 2 0.0866 13.908 19.501 26.396
 192 1 1 -0.0521 15.215 21.586 29.943
 193 1 4 -0.2763 17.304 18.241 28.683
 194 1 1 -0.0521 16.468 20.854 31.898
 195 1 1 0.0078 17.099 18.893 24.239
 196 1 1 -0.0531 11.847 15.736 24.773
 197 1 1 -0.0632 16.388 15.559 32.505
 198 1 1 0.0078 15.301 12.202 24.643
 199 1 1 -0.0531 17.697 14.610 28.765
 200 1 11 -0.2514 14.524 21.572 24.880
 201 1 1 0.04 16.450 21.353 30.580
 202 1 1 0.0078 12.075 19.741 21.926
 203 1 2 0.0896 16.857 20.932 23.571
 204 1 1 -0.043 16.474 20.159 24.228
 205 1 11 -0.2514 12.726 13.667 29.124
 206 1 11 -0.2514 14.235 12.971 24.127
 207 1 6 0.1829 12.011 19.789 31.164
 208 1 10 0.2266 17.639 12.103 29.014
 209 1 1 0.0277 16.941 13.427 28.874
 210 1 10 0.2266 12.752 21.094 29.759
 211 1 2 0.0872 17.417 20.645 32.385
 212 1 1 -0.0531 15.662 15.929 28.793
 213 1 1 0.0277 17.063 15.870 28.709
 214 1 1 0.0277 14.888 14.760 28.834
 215 1 2 0.0871 15.162 16.891 28.763
 216 1 2 0.0871 12.414 16.252 25.537
 217 1 4 -0.2763 14.704 12.052 31.582
 218 1 10 0.2266 18.246 17.605 22.377
 219 1 4 -0.2763 12.714 21.489 28.604
 220 1 1 0.0277 16.986 16.857 21.986
 221 1 2 0.0896 12.067 18.684 28.074
 222 1 12 0.2765 17.746 21.504 29.837
 223 1 1 -0.0531 11.779 13.994 23.112
 224 1 2 0.0839 17.619 17.194 31.818
 225 1 1 0.0078 11.336 13.404 29.236
 226 1 2 0.0871 17.997 14.933 21.697
 227 1 10 0.2266 14.364 12.576 32.629
 228 1 1 0.0078 16.302 14.172 32.704
 229 1 1 0.0278 13.082 12.181 33.322
 230 1 10 0.2266 15.226 19.954 33.932
 231 1 2 0.0896 13.397 17.799 34.011
 232 1 6 0.1829 16.448 18.422 33.282
 233 1 1 0.0278 15.264 20.602 32.579
 234 1 11 -0.2514 15.850 18.716 34.047
 235 1 11 -0.2514 15.088 13.618 33.188
 236 1 4 -0.2763 12.430 15.753 32.800
 237 1 1 -0.0531 12.119 11.455 32.599
 238 1 6 0.1829 14.648 14.130 33.940
 239 1 2 0.0896 17.369 12.291 32.635
 240 1 10 0.2266 11.702 15.636 33.773
 241 1 1 -0.043 17.427 13.362 32.455
 242 1 2 0.0871 13.114 20.610 32.443
 243 1 2 0.0866 15.513 16.183 32.658
 244 1 6 0.1829 13.931 21.724 25.680
 245 1 2 0.0866 11.711 11.312 28.945
 246 1 4 -0.2623 23.680 21.225 34.496
 247 1 1 -0.0632 20.071 21.292 20.982
 248 1 1 0.0078 21.878 12.790 21.592
 249 1 2 0.0871 21.100 15.846 25.141
 250 1 2 0.0871 18.781 14.542 28.744
 251 1 1 -0.0632 19.462 19.164 26.742
 252 1 2 0.0866 21.341 21.565 31.254
 253 1 1 0.0078 19.929 17.984 27.357
 254 1 1 -0.0632 21.555 19.335 25.522
 255 1 4 -0.2763 18.841 12.005 28.839
 256 1 10 0.2266 20.874 13.167 30.998
 257 1 11 -0.2514 19.067 17.007 27.913
 258 1 6 0.1829 19.370 16.059 27.731
 259 1 10 0.2266 19.434 13.753 25.586
 260 1 2 0.0871 21.080 11.765 26.619
 261 1 6 0.1829 19.580 11.712 25.655
 262 1 1 -0.0632 18.687 15.311 31.752
 263 1 4 -0.2623 18.769 20.952 30.193
 264 1 11 -0.2514 18.920 12.471 25.531
 265 1 4 -0.2763 21.118 14.142 30.312
 266 1 1 0.0277 20.907 13.816 25.859
 267 1 6 0.1829 19.080 18.977 23.679
 268 1 4 -0.2763 18.755 14.760 25.483
 269 1 2 0.0866 19.572 15.771 31.331
 270 1 2 0.0866 18.442 19.509 26.888
 271 1 2 0.0896 20.433 12.420 23.162
 272 1 1 0.0078 18.628 13.918 31.976
 273 1 1 -0.043 20.887 12.036 22.251
 274 1 1 -0.0632 21.407 20.528 31.576
 275 1 2 0.0839 19.936 20.767 25.370
 276 1 2 0.0896 21.622 16.725 27.748
 277 1 1 -0.043 21.266 17.591 27.190
 278 1 11 -0.2514 19.733 13.032 31.786
 279 1 1 -0.0801 20.295 19.861 25.852
 280 1 1 -0.0531 21.587 12.701 26.397
 281 1 1 -0.0801 20.433 21.328 22.331
 282 1 1 -0.0531 21.618 15.009 25.602
 283 1 6 0.1829 19.671 12.185 32.337
 284 1 2 0.0839 20.153 20.487 22.962
 285 1 1 0.0078 21.582 17.844 32.397
 286 1 4 -0.2763 19.323 17.258 21.921
 287 1 11 -0.2514 21.509 16.509 32.865
 288 1 6 0.1829 20.614 16.260 33.265
 289 1 11 -0.2514 20.432 21.149 33.724
 290 1 2 0.0871 20.156 14.899 34.377
 291 1 2 0.0896 20.758 18.518 34.260
 292 1 1 -0.043 21.080 18.820 33.267
 293 1 1 0.0078 20.972 20.160 32.861
 294 1 10 0.2266 22.591 15.182 21.642
 295 1 10 0.2266 24.582 20.646 21.663
 296 1 11 -0.2514 22.432 13.925 22.218
 297 1 2 0.0839 24.539 13.156 23.299
 298 1 2 0.0871 25.034 20.177 24.340
 299 1 10 0.2266 24.336 21.594 26.666
 300 1 10 0.2266 25.270 15.640 29.493
 301 1 6 0.1829 23.923 18.386 25.432
 302 1 1 0.0078 22.033 18.174 26.159
 303 1 1 0.0078 25.155 18.104 29.955
 304 1 1 -0.043 25.079 18.614 28.645
 305 1 1 0.0078 25.212 19.991 28.397
 306 1 11 -0.2514 24.803 16.754 30.177
 307 1 2 0.0896 24.848 17.943 27.826
 308 1 1 -0.0632 22.006 18.209 31.099
 309 1 6 0.1829 22.907 13.722 23.100
 310 1 1 0.0277 22.990 15.118 25.919
 311 1 4 -0.2763 24.826 11.727 27.654
 312 1 1 -0.0531 24.792 21.216 24.144
 313 1 10 0.2266 23.703 11.585 27.212
 314 1 11 -0.2514 25.087 20.495 27.063
 315 1 10 0.2266 23.817 16.363 25.663
 316 1 2 0.0871 23.532 13.343 31.324
 317 1 6 0.1829 23.877 16.661 30.597
 318 1 1 -0.0531 23.232 12.304 31.228
 319 1 2 0.0871 24.720 13.969 26.589
 320 1 4 -0.2763 24.519 14.688 29.366
 321 1 1 -0.0531 23.647 13.969 26.412
 322 1 2 0.0839 22.172 19.850 29.679
 323 1 4 -0.2763 25.013 16.248 25.458
 324 1 1 0.0277 22.957 12.772 26.665
 325 1 11 -0.2514 23.283 17.654 25.716
 326 1 1 0.0277 24.654 21.649 22.798
 327 1 4 -0.2763 23.149 16.075 22.254
 328 1 2 0.0866 22.160 19.833 24.768
 329 1 4 -0.2763 24.588 19.454 21.909
 330 1 2 0.0866 22.416 17.477 30.405
 331 1 1 -0.0801 21.892 19.552 30.687
 332 1 1 0.0278 21.856 12.034 31.082
 333 1 4 -0.2763 23.695 15.913 32.801
 334 1 2 0.0872 24.274 13.757 33.872
 335 1 10 0.2266 22.563 15.681 33.187
 336 1 1 -0.0507 23.274 13.543 34.247
 337 1 1 0.0278 22.249 14.478 34.047
 338 1 1 0.0278 24.172 11.252 31.339
 339 1 1 -0.0632 25.389 18.970 31.041
 340 1 1 -0.0531 28.227 21.357 21.465
 341 1 1 0.0277 27.821 18.589 21.797
 342 1 2 0.0871 32.069 14.662 21.628
 343 1 10 0.2266 28.559 12.715 21.190
 344 1 4 -0.2763 27.423 16.422 20.926
 345 1 6 0.1829 25.474 19.927 26.323
 346 1 1 -0.043 32.129 17.593 31.824
 347 1 1 0.0078 27.197 15.250 23.570
 348 1 1 -0.0531 27.713 16.508 29.229
 349 1 11 -0.2514 27.882 21.225 25.187
 350 1 1 -0.0531 27.044 14.426 28.207
 351 1 1 -0.0632 30.197 13.839 32.062
 352 1 2 0.0871 27.568 17.350 29.891
 353 1 1 -0.0531 27.737 19.467 22.903
 354 1 1 -0.0531 29.343 15.159 28.022
 355 1 6 0.1829 31.328 15.780 22.809
 356 1 2 0.0896 31.123 17.800 32.170
 357 1 6 0.1829 27.411 20.334 25.137
 358 1 1 -0.0632 27.820 14.252 32.240
 359 1 1 -0.0632 31.151 20.306 24.301
 360 1 1 0.0078 27.527 13.307 25.014
 361 1 10 0.2266 28.730 12.867 27.193
 362 1 1 -0.043 28.632 12.300 31.042
 363 1 1 0.0078 27.567 13.073 31.519
 364 1 11 -0.2514 31.072 11.800 31.108
 365 1 2 0.0866 25.430 18.603 32.069
 366 1 1 -0.0801 25.542 13.462 23.596
 367 1 1 0.0078 31.499 19.496 25.399
 368 1 1 0.0277 28.353 14.206 27.749
 369 1 6 0.1829 25.670 13.365 30.793
 370 1 6 0.1829 27.734 17.206 23.963
 371 1 2 0.0871 26.312 13.645 28.071
 372 1 10 0.2266 27.646 17.095 21.916
 373 1 1 -0.0632 26.041 14.646 23.044
 374 1 6 0.1829 31.149 20.896 26.902
 375 1 1 -0.0632 28.668 20.954 27.519
 376 1 2 0.0839 25.638 21.023 31.642
 377 1 11 -0.2514 26.233 12.676 31.258
 378 1 4 -0.2763 29.236 12.028 27.914
 379 1 6 0.1829 31.954 12.300 31.091
 380 1 11 -0.2514 31.742 16.138 23.661
 381 1 2 0.0871 30.371 14.981 27.716
 382 1 2 0.0866 28.965 19.936 27.316
 383 1 1 -0.043 27.919 14.590 24.578
 384 1 1 -0.043 31.661 18.107 25.198
 385 1 6 0.1829 31.045 15.353 29.932
 386 1 1 -0.0801 31.006 19.747 23.018
 387 1 2 0.0839 29.280 20.789 29.589
 388 1 1 -0.0632 31.204 18.367 22.831
 389 1 2 0.0896 28.808 15.065 24.979
 390 1 2 0.0871 27.494 19.063 23.879
 391 1 4 -0.2763 29.095 13.163 22.185
 392 1 11 -0.2514 27.571 16.569 23.196
 393 1 1 0.0277 28.000 20.853 22.759
 394 1 1 0.0078 31.543 17.534 23.913
 395 1 10 0.2266 25.647 11.469 31.607
 396 1 1 0.0277 26.686 15.578 28.938
 397 1 2 0.0839 31.999 13.390 27.353
 398 1 1 0.0277 29.033 16.281 28.808
 399 1 1 -0.0632 25.423 20.852 29.491
 400 1 2 0.0896 31.887 17.474 26.047
 401 1 1 -0.0801 25.505 20.348 30.803
 402 1 2 0.0866 25.469 15.134 22.267
 403 1 1 -0.0801 28.835 21.435 28.829
 404 1 11 -0.2514 28.329 12.543 25.905
 405 1 2 0.0866 25.988 11.793 24.918
 406 1 1 0.0078 32.287 16.842 30.647
 407 1 11 -0.2514 31.160 16.360 29.941
 408 1 10 0.2266 30.138 17.111 29.383
 409 1 11 -0.2514 31.729 20.098 26.675
 410 1 4 -0.2763 30.056 18.323 29.491
 411 1 1 -0.0632 26.323 12.752 24.532
 412 1 1 0.0078 29.959 12.646 31.359
 413 1 2 0.0866 31.008 21.375 24.438
 414 1 2 0.0839 30.748 20.380 22.169
 415 1 2 0.0866 31.094 17.934 21.843
 416 1 10 0.2266 28.155 21.782 23.950
 417 1 1 0.0078 28.132 21.764 26.493
 418 1 2 0.0896 28.387 11.426 30.458
 419 1 6 0.1829 28.524 11.596 25.602
 420 1 1 -0.0531 32.433 13.786 22.166
 421 1 2 0.0866 31.211 14.127 32.306
 422 1 2 0.0839 29.357 15.547 33.067
 423 1 1 -0.0801 29.140 14.642 32.505
 424 1 4 -0.2763 30.999 19.558 33.736
 425 1 10 0.2266 32.120 19.585 34.207
 426 1 2 0.0866 26.996 14.865 32.590
 427 1 2 0.0866 17.239 17.223 35.870
 428 1 6 0.1829 14.740 19.619 37.851
 429 1 1 0.04 11.591 12.165 35.280
 430 1 4 -0.2763 14.449 19.890 40.964
 431 1 1 -0.0801 15.641 15.937 36.583
 432 1 2 0.0866 18.111 12.451 38.667
 433 1 1 -0.0632 17.256 19.574 38.100
 434 1 1 0.0078 16.370 20.392 38.810
 435 1 2 0.0871 16.937 21.729 35.412
 436 1 2 0.0872 12.580 19.738 37.600
 437 1 2 0.0866 16.898 18.659 37.643
 438 1 1 -0.0632 16.008 14.014 42.852
 439 1 1 -0.0521 12.821 12.501 34.673
 440 1 11 -0.2514 15.002 20.008 38.750
 441 1 2 0.0866 12.102 12.710 42.005
 442 1 2 0.0839 16.276 15.426 37.311
 443 1 1 -0.0531 12.797 17.541 40.194
 444 1 10 0.2266 14.177 19.641 39.802
 445 1 1 0.0586 11.347 17.970 37.814
 446 1 2 0.0872 13.586 12.995 35.261
 447 1 1 0.0078 15.363 17.666 34.878
 448 1 4 -0.2623 11.834 13.521 37.243
 449 1 1 0.0078 13.493 16.183 35.439
 450 1 2 0.0866 17.145 18.566 41.999
 451 1 2 0.0871 13.359 17.359 41.109
 452 1 6 0.1829 17.407 13.171 36.140
 453 1 1 -0.0507 12.351 18.876 38.220
 454 1 2 0.0866 13.892 14.746 37.038
 455 1 2 0.0866 16.546 14.285 41.950
 456 1 1 0.0278 13.072 18.684 39.415
 457 1 1 0.0278 11.823 16.599 39.796
 458 1 1 -0.043 14.022 17.278 34.734
 459 1 12 0.2765 11.301 12.569 36.707
 460 1 1 -0.0632 16.187 16.961 35.778
 461 1 2 0.0839 14.097 14.220 41.912
 462 1 11 -0.2514 12.190 15.727 35.081
 463 1 1 -0.0632 14.289 15.555 36.426
 464 1 4 -0.2763 14.419 20.337 34.760
 465 1 1 -0.0801 14.611 13.973 42.834
 466 1 4 -0.2763 11.983 15.424 41.838
 467 1 2 0.0839 12.865 11.433 38.739
 468 1 6 0.1829 11.537 15.598 35.844
 469 1 1 -0.0632 18.106 18.683 42.491
 470 1 1 -0.043 16.848 21.585 39.404
 471 1 10 0.2266 11.553 15.419 40.700
 472 1 2 0.0866 12.815 13.648 43.982
 473 1 1 -0.0801 14.442 17.218 44.213
 474 1 1 0.0078 16.712 13.740 44.031
 475 1 1 -0.0531 14.512 20.864 45.312
 476 1 11 -0.2514 14.370 15.726 47.584
 477 1 6 0.1829 16.350 20.130 43.857
 478 1 7 -0.2415 17.999 12.285 48.239
 479 1 4 -0.2763 17.201 18.712 46.551
 480 1 2 0.0871 14.717 20.822 44.247
 481 1 1 -0.0507 13.074 21.573 47.131
 482 1 2 0.0866 15.740 15.949 45.385
 483 1 4 -0.2763 15.256 11.580 47.474
 484 1 10 0.2266 14.167 12.116 47.406
 485 1 1 -0.0632 13.252 17.959 44.215
 486 1 1 0.0078 18.148 19.123 43.828
 487 1 6 0.1829 11.850 19.941 45.648
 488 1 1 -0.043 15.998 13.340 45.183
 489 1 1 0.0078 14.581 13.264 45.173
 490 1 2 0.0896 16.551 13.111 46.083
 491 1 11 -0.2514 11.474 19.030 45.420
 492 1 2 0.0871 11.413 12.516 47.406
 493 1 1 -0.0507 14.985 20.158 47.591
 494 1 1 0.0586 13.854 20.855 48.049
 495 1 1 -0.0632 13.899 13.628 43.997
 496 1 6 0.1829 14.760 14.825 47.339
 497 1 11 -0.2514 16.954 19.577 44.453
 498 1 1 0.0278 15.328 20.151 46.222
 499 1 11 -0.2514 18.127 13.878 43.982
 500 1 1 0.0278 13.401 21.606 45.766
 501 1 2 0.0896 12.203 17.354 47.400
 502 1 11 -0.2514 13.798 12.898 46.317
 503 1 6 0.1829 12.853 13.266 46.329
 504 1 1 -0.0632 14.814 16.512 45.363
 505 1 1 0.0078 12.466 18.033 45.366
 506 1 1 0.0078 13.989 16.524 46.493
 507 1 10 0.2266 16.561 19.401 45.775
 508 1 1 -0.043 12.820 17.300 46.508
 509 1 2 0.0839 15.091 17.211 43.343
 510 1 2 0.0866 12.956 18.555 43.364
 511 1 2 0.0872 16.366 14.228 48.170
 512 1 2 0.0866 13.658 11.253 41.098
 513 1 2 0.0866 21.451 18.326 41.912
 514 1 11 -0.2514 20.489 17.214 38.433
 515 1 1 -0.0632 19.562 15.367 39.698
 516 1 10 0.2266 19.428 21.002 34.667
 517 1 11 -0.2514 18.396 13.389 36.154
 518 1 1 0.0278 20.642 12.939 35.118
 519 1 1 -0.0801 18.584 19.959 37.919
 520 1 4 -0.2763 18.773 19.980 34.783
 521 1 2 0.0839 19.227 19.349 37.299
 522 1 2 0.0866 20.085 21.424 38.260
 523 1 1 -0.0801 18.917 14.125 39.765
 524 1 1 -0.0632 18.570 13.438 38.591
 525 1 10 0.2266 19.201 12.557 35.387
 526 1 1 0.0078 18.808 14.043 37.340
 527 1 1 -0.043 19.396 15.317 37.278
 528 1 1 0.0078 19.821 15.964 38.455
 529 1 2 0.0871 20.459 13.362 42.814
 530 1 2 0.0839 19.287 18.063 40.763
 531 1 2 0.0866 19.869 15.857 40.616
 532 1 1 -0.0801 19.298 18.402 41.795
 533 1 2 0.0896 19.525 15.796 36.314
 534 1 2 0.0839 18.701 13.695 40.734
 535 1 10 0.2266 21.418 17.649 37.495
 536 1 1 -0.0632 19.060 21.150 38.478
 537 1 6 0.1829 20.280 17.820 39.220
 538 1 1 -0.0632 20.532 18.551 42.442
 539 1 1 -0.0531 20.955 14.189 34.545
 540 1 4 -0.2763 18.726 11.553 34.888
 541 1 1 -0.0507 21.670 11.979 35.191
 542 1 4 -0.2763 21.721 16.993 36.512
 543 1 2 0.0871 21.829 18.977 39.881
 544 1 2 0.0871 20.465 16.499 45.800
 545 1 1 0.0277 20.315 14.841 44.405
 546 1 4 -0.2763 18.627 14.636 46.085
 547 1 1 0.0078 20.579 18.931 43.794
 548 1 2 0.0896 19.447 19.483 45.534
 549 1 1 -0.0632 21.709 19.703 48.115
 550 1 10 0.2266 18.989 14.371 44.951
 551 1 11 -0.2514 21.806 18.970 44.501
 552 1 1 -0.043 19.390 19.196 44.489
 553 1 1 -0.0531 20.923 15.983 44.959
 554 1 2 0.0866 21.062 19.462 47.280
 555 1 4 -0.2415 20.485 11.313 44.209
 556 1 4 -0.2763 19.085 21.139 47.711
 557 1 1 -0.0531 20.899 14.246 43.261
 558 1 7 -0.2415 20.331 11.497 46.416
 559 1 6 0.1829 18.518 13.826 43.051
 560 1 1 -0.0531 22.155 19.553 39.024
 561 1 10 0.2266 22.550 14.219 41.341
 562 1 2 0.0871 24.723 18.636 38.773
 563 1 6 0.1829 23.713 15.889 41.036
 564 1 1 0.04 23.063 21.008 36.799
 565 1 6 0.1829 25.361 12.235 42.092
 566 1 11 -0.2514 24.921 12.228 43.003
 567 1 6 0.1829 24.442 16.375 35.414
 568 1 1 -0.0632 24.764 13.458 39.222
 569 1 1 0.0078 24.088 14.680 39.407
 570 1 1 -0.043 24.132 15.651 38.397
 571 1 1 0.0078 24.845 15.418 37.209
 572 1 11 -0.2514 24.981 16.468 36.267
 573 1 2 0.0871 23.437 16.440 42.718
 574 1 2 0.0896 23.653 16.611 38.556
 575 1 1 -0.0521 22.519 19.726 36.637
 576 1 4 -0.2763 22.237 20.893 41.544
 577 1 2 0.0866 24.775 12.710 40.007
 578 1 4 -0.2763 24.552 18.239 41.433
 579 1 1 0.0278 22.033 19.000 37.735
 580 1 1 -0.0521 23.154 21.559 38.091
 581 1 1 0.0278 22.728 20.828 39.220
 582 1 11 -0.2514 23.440 15.004 40.626
 583 1 7 -0.2415 25.295 11.679 34.884
 584 1 10 0.2266 22.861 21.380 40.619
 585 1 2 0.0872 22.451 19.299 35.643
 586 1 1 0.0586 22.980 12.278 34.780
 587 1 4 -0.2763 22.148 13.154 40.904
 588 1 12 0.2765 23.544 21.749 35.586
 589 1 1 0.0277 22.022 14.811 42.629
 590 1 6 0.1829 24.056 14.295 47.412
 591 1 1 -0.0531 22.593 15.965 43.194
 592 1 1 0.0078 25.181 13.407 43.753
 593 1 2 0.0896 24.484 12.729 45.705
 594 1 1 -0.043 24.928 13.539 45.133
 595 1 2 0.0866 24.123 21.324 43.206
 596 1 10 0.2266 22.579 17.869 44.824
 597 1 1 0.0277 22.056 16.549 44.351
 598 1 4 -0.2763 23.506 17.947 45.609
 599 1 1 0.0078 25.228 14.746 45.789
 600 1 11 -0.2514 24.831 14.878 47.135
 601 1 6 0.1829 22.023 19.840 44.972
 602 1 4 -0.2415 29.096 21.697 46.706
 603 1 1 -0.0632 32.461 12.720 42.687
 604 1 1 -0.0801 25.466 13.213 38.029
 605 1 1 -0.0632 25.485 14.180 37.012
 606 1 2 0.0871 30.945 13.122 39.661
 607 1 7 -0.2415 30.477 17.149 40.346
 608 1 1 -0.0531 31.398 20.118 36.555
 609 1 4 -0.2415 30.580 16.993 38.113
 610 1 1 0.0278 31.681 20.566 37.865
 611 1 11 -0.2514 26.074 19.634 42.321
 612 1 2 0.0839 28.737 13.869 35.802
 613 1 2 0.0872 28.306 18.312 41.139
 614 1 2 0.0866 26.030 13.970 36.095
 615 1 1 -0.043 28.485 11.591 42.273
 616 1 1 -0.043 32.105 12.003 36.234
 617 1 1 -0.0507 27.796 18.203 40.183
 618 1 1 0.0078 32.098 13.405 36.204
 619 1 1 0.0078 26.994 20.709 42.303
 620 1 6 0.1829 27.386 11.979 39.572
 621 1 1 0.0278 26.417 17.822 37.748
 622 1 1 0.0078 28.612 12.446 41.162
 623 1 10 0.2266 25.686 17.648 36.449
 624 1 1 -0.0531 25.772 18.391 38.853
 625 1 1 -0.0801 29.682 13.347 35.905
 626 1 1 -0.0531 31.413 12.141 39.633
 627 1 1 -0.0801 27.419 21.797 35.686
 628 1 1 -0.0632 30.867 14.079 36.096
 629 1 2 0.0896 26.798 21.216 40.193
 630 1 2 0.0866 28.817 11.358 35.692
 631 1 12 0.3852 29.933 17.261 39.112
 632 1 1 -0.0632 29.715 11.944 35.858
 633 1 1 -0.0632 28.866 13.815 41.361
 634 1 2 0.0866 25.899 14.438 41.990
 635 1 1 0.0586 28.473 17.649 39.065
 636 1 1 -0.0632 27.754 21.151 36.888
 637 1 1 -0.0801 28.927 14.339 42.663
 638 1 1 -0.043 27.201 21.514 41.159
 639 1 2 0.0866 29.001 14.471 40.508
 640 1 1 -0.0507 27.765 17.463 37.858
 641 1 1 0.0278 26.433 18.565 40.080
 642 1 4 -0.2763 25.653 18.541 35.622
 643 1 1 0.0078 28.856 21.590 37.639
 644 1 2 0.0872 28.255 17.034 36.990
 645 1 11 -0.2514 29.343 20.844 38.741
 646 1 2 0.0866 27.228 20.249 37.173
 647 1 4 -0.2763 31.018 20.238 40.128
 648 1 10 0.2266 25.576 18.877 41.276
 649 1 2 0.0871 30.438 19.653 36.330
 650 1 10 0.2266 30.668 20.495 38.990
 651 1 1 0.0278 32.366 20.236 35.535
 652 1 2 0.0866 30.816 15.161 36.151
 653 1 1 -0.0632 25.718 14.503 43.055
 654 1 2 0.0839 25.991 12.271 37.884
 655 1 1 0.0078 30.919 11.269 36.066
 656 1 2 0.0839 29.087 15.403 42.819
 657 1 11 -0.2514 28.359 11.939 39.863
 658 1 2 0.0839 26.579 21.439 35.096
 659 1 6 0.1829 28.707 20.763 39.525
 660 1 1 -0.043 32.500 15.130 42.913
 661 1 6 0.1829 25.571 19.550 43.198
 662 1 2 0.0839 31.834 11.603 44.422
 663 1 6 0.1829 28.859 11.655 45.556
 664 1 10 0.2266 25.417 15.601 48.151
 665 1 4 -0.2763 30.487 17.236 44.269
 666 1 1 -0.0801 31.997 12.590 44.004
 667 1 11 -0.2514 28.376 11.304 44.740
 668 1 1 -0.0632 28.746 13.490 43.768
 669 1 2 0.0866 27.386 20.492 44.430
 670 1 1 -0.0507 30.652 19.247 46.355
 671 1 1 0.0078 32.124 14.980 44.259
 672 1 2 0.0871 27.460 11.780 47.241
 673 1 1 -0.0632 27.546 21.092 43.537
 674 1 1 -0.0632 31.801 13.728 44.792
 675 1 1 -0.0632 25.794 15.822 45.081
 676 1 2 0.0839 26.442 16.532 43.143
 677 1 11 -0.2514 32.219 16.071 45.130
 678 1 2 0.0866 25.997 16.769 45.574
 679 1 1 0.0586 30.713 20.114 47.465
 680 1 1 0.0078 28.535 12.112 43.581
 681 1 1 0.0278 31.488 18.110 46.267
 682 1 12 0.3852 29.786 21.289 47.613
 683 1 2 0.0866 31.469 13.640 45.826
 684 1 10 0.2266 31.356 17.143 45.118
 685 1 4 -0.2763 26.495 16.160 48.021
 686 1 1 -0.0801 26.031 15.701 43.708
 687 1 2 0.0872 29.912 19.432 45.588
 688 1 1 -0.0521 32.308 17.797 47.371
 689 1 2 0.0866 28.768 13.902 44.774
 690 1 1 0.0401 13.749 18.555 55.503
 691 1 8 -0.3506 16.575 16.217 52.759
 692 1 12 0.2765 14.310 17.282 56.181
 693 1 1 -0.0496 12.600 18.570 54.676
 694 1 1 -0.051 14.474 19.733 55.672
 695 1 4 -0.2623 13.685 16.941 57.175
 696 1 2 0.0873 11.963 17.690 54.628
 697 1 6 0.157 16.635 15.278 52.335
 698 1 1 0.0401 14.271 20.833 54.850
 699 1 4 -0.2623 14.265 13.489 54.083
 700 1 8 -0.3506 11.357 14.573 55.073
 701 1 2 0.0872 15.290 19.765 56.384
 702 1 6 0.157 16.704 15.310 52.375
 703 1 7 -0.2415 14.102 19.970 50.284
 704 1 4 -0.2763 14.296 17.238 49.295
 705 1 12 0.3852 13.449 20.851 49.496
 706 1 1 -0.0645 11.681 14.386 52.637
 707 1 1 0.0586 12.333 19.682 53.847
 708 1 1 0.0278 13.191 12.013 48.556
 709 1 2 0.0839 12.001 14.531 50.485
 710 1 2 0.0866 12.590 13.852 52.749
 711 1 10 0.2266 14.518 16.108 48.897
 712 1 1 -0.0521 13.656 11.611 49.831
 713 1 1 -0.0531 11.812 12.271 48.384
 714 1 1 -0.0645 17.451 18.100 53.275
 715 1 1 -0.0496 16.349 13.125 51.395
 716 1 1 0.0586 16.746 13.238 50.055
 717 1 1 -0.0507 16.084 14.157 49.219
 718 1 1 0.04 15.354 13.931 51.954
 719 1 1 -0.0521 14.764 14.929 51.118
 720 1 1 0.0278 15.123 15.038 49.757
 721 1 2 0.0872 14.108 15.696 51.531
 722 1 2 0.0866 16.459 18.467 53.561
 723 1 12 0.3852 17.890 12.393 49.577
 724 1 1 -0.0091 17.680 16.740 53.372
 725 1 1 -0.0496 13.211 20.796 53.893
 726 1 1 -0.0801 18.169 18.748 52.271
 727 1 2 0.0839 17.761 19.665 51.858
 728 1 2 0.0873 13.076 21.594 53.161
 729 1 2 0.0872 14.709 11.385 49.972
 730 1 1 0.04 12.767 11.475 50.919
 731 1 2 0.0872 15.593 19.615 48.310
 732 1 2 0.0873 16.844 12.415 52.044
 733 1 12 0.2765 15.243 13.891 53.511
 734 1 1 -0.0521 11.410 11.744 50.716
 735 1 4 -0.2415 12.595 21.600 49.942
 736 1 2 0.0866 16.171 21.522 49.908
 737 1 7 -0.379 15.812 16.998 56.116
 738 1 7 -0.379 16.362 13.724 54.411
 739 1 6 0.157 15.309 21.252 53.202
 740 1 7 -0.379 16.290 21.877 55.633
 741 1 1 -0.0802 11.363 14.763 51.328
 742 1 6 0.157 15.372 21.356 53.168
 743 1 8 -0.3506 15.567 21.401 52.215
 744 1 12 0.2765 21.673 11.787 54.154
 745 1 4 -0.2763 20.414 14.578 50.319
 746 1 1 -0.0632 19.332 18.150 51.738
 747 1 2 0.0896 19.079 15.080 53.176
 748 1 11 -0.2514 20.993 16.303 51.747
 749 1 10 0.2266 21.261 15.184 50.951
 750 1 2 0.0866 19.906 18.697 51.001
 751 1 1 0.0077 19.743 16.859 52.150
 752 1 4 -0.2415 18.700 11.875 50.328
 753 1 1 -0.0444 18.897 16.142 53.005
 754 1 1 0.0077 21.813 21.026 48.587
 755 1 6 0.1829 21.791 16.775 52.157
 756 1 4 -0.2623 20.880 12.479 53.556
 757 1 4 -0.2623 24.847 16.170 54.157
 758 1 1 0.04 24.441 19.658 54.378
 759 1 1 -0.051 24.414 19.811 55.768
 760 1 2 0.0872 23.448 19.900 56.251
 761 1 1 -0.0645 23.378 18.999 49.723
 762 1 8 -0.3506 24.473 20.741 51.079
 763 1 2 0.0872 23.010 14.775 52.902
 764 1 1 0.0278 22.723 14.874 50.791
 765 1 2 0.0872 22.626 12.261 51.535
 766 1 12 0.2765 23.000 19.426 53.863
 767 1 1 -0.0091 23.538 20.341 50.116
 768 1 1 -0.0531 23.356 15.053 49.549
 769 1 4 -0.2623 22.144 18.893 54.550
 770 1 1 -0.0444 22.708 21.335 49.609
 771 1 4 -0.2763 25.046 12.241 49.626
 772 1 2 0.0866 23.959 18.209 50.184
 773 1 2 0.0871 22.741 15.066 48.660
 774 1 1 -0.0521 23.511 14.807 51.941
 775 1 1 -0.0521 23.197 11.495 52.060
 776 1 1 0.04 24.747 15.427 51.898
 777 1 1 0.0278 24.724 15.412 49.476
 778 1 6 0.157 24.332 20.489 52.029
 779 1 1 -0.0801 22.454 18.680 48.719
 780 1 6 0.157 24.255 20.437 52.044
 781 1 7 -0.379 22.595 20.100 52.783
 782 1 7 -0.379 24.428 17.328 53.358