LAMMPS data file via write_data, version 29 Oct 2020, timestep = 231

9739 atoms
16 atom types
9169 bonds
19 bond types
12129 angles
24 angle types
19475 dihedrals
42 dihedral types

11.246593 53.753407 xlo xhi
11.246593 53.753407 ylo yhi
-18.829000 84.813000 zlo zhi

Masses

1 12.01
2 1.008
3 12.01
4 16
5 14.01
6 1.008
7 16
8 14.01
9 1.008
10 12.01
11 14.01
12 12.01
13 1.008
14 16
15 15.9994000 # OW (oxygen in water)
16  1.0080000 # HW (hydrogen in water)

Pair Coeffs # lj/cut/coul/long/omp

1 0.086 3.39967
2 0.015 2.59964
3 0.086 3.39967
4 0.21 2.95992
5 0.17 3.25
6 0.0157 1.06908
7 0.2104 3.06647
8 0.17 3.25
9 0 0
10 0.086 3.39967
11 0.17 3.25
12 0.086 3.39967
13 0.0157 1.06908
14 0.2104 3.06647
15 0.1020000 3.1880000 # OW
16 0.0000000 0.0000000 # HW

Atoms # full

 1 1 1 0.04 13.462 19.158 13.005
 2 1 6 0.157 15.670 18.376 14.000
 3 1 12 0.2765 13.498 18.882 14.504
 4 1 1 -0.051 12.393 18.869 12.108
 5 1 1 0.04 11.774 13.988 14.552
 6 1 1 -0.0521 12.899 12.281 16.481
 7 1 2 0.0866 14.487 15.288 13.911
 8 1 4 -0.2623 17.832 19.104 14.031
 9 1 1 -0.051 14.453 20.028 12.551
 10 1 1 -0.0632 17.116 14.121 15.732
 11 1 4 -0.2623 12.943 17.933 15.016
 12 1 1 0.0077 17.776 15.340 15.952
 13 1 1 -0.0444 17.264 16.523 15.422
 14 1 1 -0.0091 16.112 16.470 14.619
 15 1 8 -0.3506 15.816 17.436 13.656
 16 1 2 0.0896 17.865 17.415 15.526
 17 1 2 0.0872 11.666 18.089 12.296
 18 1 1 0.04 13.005 11.948 15.108
 19 1 1 -0.0645 15.379 15.294 14.522
 20 1 1 -0.051 12.385 12.773 14.149
 21 1 1 0.04 14.217 20.890 11.490
 22 1 2 0.0839 15.389 13.177 14.830
 23 1 2 0.0866 17.562 13.188 16.057
 24 1 2 0.0872 15.351 20.175 13.130
 25 1 2 0.0872 12.432 12.470 13.107
 26 1 1 -0.0801 15.898 14.106 15.037
 27 1 1 0.0278 12.244 13.455 16.896
 28 1 1 -0.0521 11.688 14.289 15.914
 29 1 1 0.04 12.170 19.691 10.974
 30 1 1 -0.051 13.068 20.741 10.705
 31 1 2 0.0872 12.878 21.448 9.901
 32 1 6 0.157 15.672 18.377 14.013
 33 1 7 -0.379 14.457 19.601 15.185
 34 1 7 -0.379 12.153 16.028 13.413
 35 1 12 0.2765 17.831 20.223 13.604
 36 1 7 -0.379 18.443 20.176 12.500
 37 1 8 -0.3506 20.861 19.285 11.983
 38 1 2 0.0866 20.568 14.650 12.011
 39 1 6 0.157 19.966 18.981 12.333
 40 1 1 -0.0801 21.111 16.250 13.356
 41 1 1 -0.0521 18.777 20.954 15.708
 42 1 11 -0.2514 19.030 15.391 16.580
 43 1 2 0.0871 21.463 15.804 16.455
 44 1 1 -0.0092 20.936 20.672 11.676
 45 1 2 0.0895 21.302 21.262 13.697
 46 1 6 0.1829 19.788 15.738 16.008
 47 1 1 0.04 18.437 21.298 14.404
 48 1 2 0.0872 18.879 19.905 15.979
 49 1 1 -0.0645 21.260 14.980 12.782
 50 1 2 0.0866 21.513 18.752 16.549
 51 1 1 -0.0457 21.287 21.600 12.665
 52 1 2 0.0839 20.278 16.878 13.055
 53 1 1 -0.0645 20.594 21.163 10.403
 54 1 2 0.0866 20.047 20.549 9.694
 55 1 6 0.157 23.782 13.078 12.067
 56 1 11 -0.2514 23.944 19.545 15.733
 57 1 10 0.2266 24.170 16.316 17.010
 58 1 11 -0.2514 24.091 16.348 15.618
 59 1 1 0.0077 23.114 15.884 14.700
 60 1 1 0.0078 23.387 19.744 17.040
 61 1 6 0.1829 24.935 16.690 15.175
 62 1 1 0.0586 25.032 19.156 11.519
 63 1 6 0.1829 23.259 19.451 14.993
 64 1 1 -0.0444 23.263 14.617 14.113
 65 1 1 -0.0507 24.659 19.145 12.874
 66 1 2 0.0896 24.113 13.996 14.379
 67 1 2 0.0839 24.737 13.604 16.999
 68 1 10 0.2266 25.282 19.613 15.331
 69 1 8 -0.3506 22.785 13.189 12.200
 70 1 2 0.0872 23.603 19.240 13.112
 71 1 2 0.0866 22.001 17.743 14.631
 72 1 1 -0.0632 22.075 16.728 14.260
 73 1 1 -0.0091 22.395 14.213 13.084
 74 1 12 0.3852 24.168 19.912 10.579
 75 1 4 -0.2415 23.099 19.501 10.185
 76 1 6 0.157 19.964 18.953 12.339
 77 1 7 -0.2415 23.738 21.696 13.915
 78 1 6 0.157 23.789 13.086 12.074
 79 1 7 -0.2415 24.482 21.230 10.580
 80 1 1 -0.043 29.021 18.339 17.102
 81 1 6 0.1829 32.390 13.566 15.131
 82 1 1 0.0279 25.633 19.365 13.871
 83 1 6 0.1829 30.083 15.225 16.546
 84 1 1 -0.0531 30.104 13.958 14.530
 85 1 4 -0.2763 27.547 16.450 15.136
 86 1 2 0.0896 28.153 18.443 16.463
 87 1 10 0.2266 31.786 12.172 13.790
 88 1 2 0.0866 26.005 12.033 15.597
 89 1 4 -0.2415 25.870 12.568 12.082
 90 1 1 -0.0632 26.463 12.431 16.498
 91 1 1 -0.0507 26.977 19.524 13.457
 92 1 2 0.0872 27.724 19.817 14.187
 93 1 6 0.1829 28.447 21.020 16.981
 94 1 1 0.0586 27.366 19.368 12.107
 95 1 4 -0.2763 26.155 19.971 16.098
 96 1 12 0.3852 27.016 12.151 12.112
 97 1 1 -0.0507 29.429 12.305 12.896
 98 1 1 0.0278 30.435 12.855 13.711
 99 1 1 -0.0507 27.798 13.881 13.781
 100 1 1 0.0278 28.795 14.490 14.568
 101 1 10 0.2266 28.480 15.712 15.406
 102 1 2 0.0872 29.672 11.449 12.272
 103 1 2 0.0871 30.870 14.400 15.155
 104 1 1 0.0586 28.105 12.793 12.935
 105 1 12 0.3852 28.774 19.613 11.628
 106 1 7 -0.2415 29.636 20.097 12.548
 107 1 2 0.0872 26.775 14.242 13.843
 108 1 11 -0.2514 29.397 15.954 16.422
 109 1 1 0.0078 27.765 12.067 16.877
 110 1 2 0.0874 26.642 19.062 10.098
 111 1 4 -0.2415 29.109 19.486 10.461
 112 1 1 -0.0483 26.381 19.082 11.154
 113 1 1 0.0277 14.541 16.775 21.728
 114 1 1 -0.0531 14.639 15.381 21.513
 115 1 2 0.0871 13.733 14.804 21.369
 116 1 1 0.0078 11.603 18.324 17.548
 117 1 4 -0.2763 18.311 15.253 18.729
 118 1 2 0.0866 12.711 20.916 20.217
 119 1 6 0.1829 17.985 13.421 20.805
 120 1 1 -0.0632 13.823 16.813 18.379
 121 1 2 0.0866 14.672 16.240 18.744
 122 1 2 0.0839 14.982 18.596 18.004
 123 1 4 -0.2763 11.995 12.782 19.144
 124 1 2 0.0872 13.353 11.655 17.252
 125 1 10 0.2266 15.961 13.263 21.026
 126 1 1 -0.0801 13.988 18.157 18.007
 127 1 4 -0.2763 12.144 16.821 21.756
 128 1 11 -0.2514 17.222 12.762 20.716
 129 1 1 -0.0632 12.868 18.923 17.633
 130 1 1 -0.0632 12.012 20.836 21.043
 131 1 1 0.0078 12.547 16.227 18.339
 132 1 10 0.2266 12.107 13.715 18.376
 133 1 6 0.1829 12.404 14.970 19.938
 134 1 11 -0.2514 12.338 14.963 18.929
 135 1 1 0.0078 17.559 11.563 20.015
 136 1 10 0.2266 13.184 17.457 21.775
 137 1 1 0.0277 15.889 14.726 21.434
 138 1 1 -0.043 11.440 16.984 17.925
 139 1 4 -0.2763 14.949 12.609 20.837
 140 1 1 -0.0531 15.732 17.503 21.927
 141 1 6 0.1829 14.073 19.299 21.625
 142 1 11 -0.2514 13.186 18.845 21.791
 143 1 1 -0.0531 17.052 15.477 21.707
 144 1 6 0.1829 13.620 12.488 23.489
 145 1 1 0.0078 15.293 20.374 24.974
 146 1 2 0.0871 12.285 13.183 22.570
 147 1 1 -0.043 16.566 12.779 24.830
 148 1 2 0.0896 16.743 13.793 24.486
 149 1 11 -0.2514 18.180 18.582 23.377
 150 1 10 0.2266 13.839 14.218 24.581
 151 1 2 0.0871 15.692 18.576 22.077
 152 1 1 0.0277 12.483 14.671 24.114
 153 1 1 0.0078 17.098 18.885 24.247
 154 1 1 -0.0531 11.841 15.719 24.787
 155 1 1 0.0078 15.301 12.201 24.642
 156 1 11 -0.2514 14.523 21.568 24.876
 157 1 1 0.0078 12.090 19.741 21.920
 158 1 2 0.0896 16.864 20.925 23.572
 159 1 1 -0.043 16.470 20.148 24.221
 160 1 11 -0.2514 14.238 12.971 24.127
 161 1 10 0.2266 18.241 17.600 22.390
 162 1 1 0.0277 16.982 16.855 22.000
 163 1 1 -0.0531 11.779 13.965 23.123
 164 1 2 0.0871 18.020 14.988 21.715
 165 1 2 0.0866 12.977 19.955 17.318
 166 1 1 -0.0531 20.967 15.204 19.748
 167 1 2 0.0866 18.969 12.603 18.741
 168 1 1 -0.0632 18.530 11.646 18.999
 169 1 2 0.0871 20.171 14.987 20.454
 170 1 1 0.0277 20.670 15.385 18.389
 171 1 4 -0.2763 18.423 20.622 18.580
 172 1 1 -0.0632 20.055 21.281 20.979
 173 1 2 0.0839 20.763 18.560 18.892
 174 1 1 -0.0531 21.716 15.654 17.484
 175 1 10 0.2266 19.237 15.334 17.941
 176 1 1 -0.0801 21.695 19.068 18.662
 177 1 10 0.2266 19.037 21.556 18.093
 178 1 2 0.0866 19.526 20.403 20.635
 179 1 1 0.0078 21.902 12.772 21.609
 180 1 6 0.1829 19.070 18.973 23.659
 181 1 2 0.0896 20.442 12.403 23.164
 182 1 1 -0.043 20.904 12.022 22.259
 183 1 1 -0.0801 20.429 21.338 22.326
 184 1 2 0.0839 20.174 20.510 22.976
 185 1 4 -0.2763 19.325 17.274 21.938
 186 1 2 0.0896 24.958 21.012 17.860
 187 1 1 -0.0531 23.297 15.695 19.298
 188 1 11 -0.2514 24.271 21.094 20.435
 189 1 1 0.0277 22.280 15.357 20.207
 190 1 10 0.2266 22.602 15.191 21.662
 191 1 10 0.2266 24.600 20.624 21.705
 192 1 2 0.0866 22.128 19.512 20.725
 193 1 4 -0.2763 25.213 16.700 17.507
 194 1 1 -0.0632 22.468 19.611 19.699
 195 1 1 -0.043 24.067 20.434 18.072
 196 1 2 0.0866 23.286 12.836 19.940
 197 1 2 0.0871 24.293 15.871 19.690
 198 1 1 -0.0632 22.499 12.277 20.439
 199 1 1 0.0078 23.624 20.354 19.405
 200 1 1 0.0277 23.043 15.840 17.916
 201 1 1 -0.0632 22.132 19.173 17.333
 202 1 11 -0.2514 22.412 13.939 22.223
 203 1 2 0.0839 24.602 13.068 23.278
 204 1 2 0.0871 25.033 20.180 24.374
 205 1 6 0.1829 22.853 13.784 23.121
 206 1 1 -0.0531 24.785 21.216 24.171
 207 1 1 0.0277 24.658 21.640 22.824
 208 1 4 -0.2763 23.166 16.067 22.290
 209 1 2 0.0866 22.159 19.832 24.767
 210 1 4 -0.2763 24.617 19.432 21.955
 211 1 10 0.2266 28.011 21.179 18.976
 212 1 1 0.0078 29.689 17.103 17.209
 213 1 1 0.0078 29.456 19.446 17.857
 214 1 11 -0.2514 28.663 20.619 17.886
 215 1 2 0.0866 31.306 16.045 18.179
 216 1 1 -0.0531 28.210 21.362 21.468
 217 1 2 0.0866 30.978 20.208 19.205
 218 1 11 -0.2514 28.017 13.592 20.263
 219 1 1 -0.0531 27.946 19.152 20.510
 220 1 2 0.0871 27.851 18.506 19.644
 221 1 1 0.0277 28.118 20.536 20.334
 222 1 1 -0.0801 31.279 18.119 18.763
 223 1 1 -0.0801 25.738 13.316 17.305
 224 1 1 -0.0632 30.615 19.348 18.649
 225 1 1 0.0277 27.789 18.597 21.793
 226 1 2 0.0871 32.066 14.624 21.605
 227 1 1 -0.0632 30.793 16.997 18.074
 228 1 2 0.0896 29.304 12.220 18.376
 229 1 6 0.1829 28.018 14.570 20.539
 230 1 1 -0.0632 26.290 13.785 18.514
 231 1 2 0.0866 25.712 14.436 19.152
 232 1 1 0.0078 27.558 13.348 18.936
 233 1 1 -0.043 28.320 12.557 18.067
 234 1 10 0.2266 28.564 12.713 21.203
 235 1 4 -0.2763 27.431 16.407 20.929
 236 1 4 -0.2763 31.757 13.155 19.402
 237 1 2 0.0896 32.107 12.506 17.203
 238 1 2 0.0839 32.167 18.033 19.384
 239 1 1 0.0078 27.207 15.253 23.570
 240 1 1 -0.0531 27.757 19.464 22.909
 241 1 6 0.1829 31.363 15.834 22.769
 242 1 1 -0.0632 31.157 20.306 24.310
 243 1 1 0.0078 27.520 13.316 25.023
 244 1 1 -0.0801 25.561 13.459 23.592
 245 1 6 0.1829 27.746 17.201 23.965
 246 1 10 0.2266 27.588 17.106 21.916
 247 1 1 -0.0632 26.040 14.663 23.053
 248 1 11 -0.2514 31.766 16.158 23.638
 249 1 1 -0.043 27.931 14.586 24.574
 250 1 1 -0.0801 31.012 19.746 23.030
 251 1 1 -0.0632 31.195 18.368 22.837
 252 1 2 0.0896 28.827 15.044 24.980
 253 1 2 0.0871 27.549 19.052 23.889
 254 1 4 -0.2763 29.150 13.169 22.166
 255 1 11 -0.2514 27.576 16.571 23.195
 256 1 1 0.0277 28.017 20.847 22.766
 257 1 1 0.0078 31.534 17.536 23.917
 258 1 2 0.0866 25.471 15.168 22.281
 259 1 2 0.0866 25.977 11.802 24.914
 260 1 1 -0.0632 26.321 12.763 24.543
 261 1 2 0.0866 31.026 21.377 24.447
 262 1 2 0.0839 30.758 20.379 22.184
 263 1 2 0.0866 31.087 17.948 21.840
 264 1 10 0.2266 28.183 21.764 23.960
 265 1 1 -0.0531 32.448 13.777 22.169
 266 1 2 0.0866 11.701 11.291 28.953
 267 1 2 0.0871 14.953 12.604 28.875
 268 1 4 -0.2763 12.810 15.922 28.637
 269 1 1 -0.0632 16.623 17.893 25.117
 270 1 2 0.0866 17.117 16.928 25.162
 271 1 1 -0.0531 14.039 20.840 31.933
 272 1 6 0.1829 13.302 12.862 29.201
 273 1 1 0.0078 17.586 12.033 25.442
 274 1 10 0.2266 13.379 14.865 28.852
 275 1 2 0.0839 15.135 17.370 26.585
 276 1 1 -0.0801 15.498 18.139 25.916
 277 1 1 -0.0632 14.822 19.364 25.829
 278 1 10 0.2266 17.821 17.159 28.500
 279 1 1 0.0278 14.004 21.236 30.580
 280 1 11 -0.2514 11.804 20.203 30.252
 281 1 1 -0.0801 17.574 16.123 32.010
 282 1 1 -0.0531 15.538 13.515 28.861
 283 1 4 -0.2763 14.441 14.807 25.464
 284 1 2 0.0866 13.918 19.518 26.411
 285 1 1 -0.0521 15.215 21.564 29.941
 286 1 4 -0.2763 17.310 18.247 28.705
 287 1 1 -0.0521 16.467 20.837 31.897
 288 1 1 -0.0632 16.382 15.553 32.483
 289 1 1 -0.0531 17.695 14.619 28.757
 290 1 1 0.04 16.450 21.330 30.576
 291 1 11 -0.2514 12.715 13.681 29.126
 292 1 6 0.1829 11.989 19.806 31.164
 293 1 10 0.2266 17.651 12.110 29.009
 294 1 1 0.0277 16.944 13.434 28.873
 295 1 10 0.2266 12.756 21.081 29.746
 296 1 2 0.0872 17.415 20.629 32.385
 297 1 1 -0.0531 15.656 15.932 28.790
 298 1 1 0.0277 17.057 15.876 28.699
 299 1 1 0.0277 14.882 14.761 28.838
 300 1 2 0.0871 15.159 16.897 28.773
 301 1 2 0.0871 12.397 16.261 25.547
 302 1 4 -0.2763 14.715 12.048 31.582
 303 1 4 -0.2763 12.709 21.493 28.597
 304 1 2 0.0896 12.064 18.693 28.073
 305 1 12 0.2765 17.741 21.487 29.821
 306 1 2 0.0839 17.629 17.192 31.823
 307 1 1 0.0078 11.331 13.400 29.245
 308 1 10 0.2266 14.370 12.572 32.630
 309 1 1 0.0078 16.299 14.170 32.703
 310 1 1 0.0278 15.263 20.592 32.582
 311 1 4 -0.2763 12.440 15.741 32.804
 312 1 1 -0.0531 12.120 11.457 32.598
 313 1 2 0.0896 17.361 12.291 32.632
 314 1 1 -0.043 17.423 13.360 32.453
 315 1 2 0.0871 13.115 20.601 32.452
 316 1 2 0.0866 15.513 16.179 32.653
 317 1 6 0.1829 13.924 21.750 25.671
 318 1 2 0.0871 21.105 15.851 25.146
 319 1 2 0.0871 18.779 14.552 28.739
 320 1 1 -0.0632 19.466 19.156 26.747
 321 1 2 0.0866 21.347 21.561 31.251
 322 1 1 0.0078 19.937 17.980 27.367
 323 1 1 -0.0632 21.558 19.338 25.525
 324 1 4 -0.2763 18.853 12.016 28.829
 325 1 10 0.2266 20.874 13.183 30.996
 326 1 11 -0.2514 19.073 17.010 27.932
 327 1 6 0.1829 19.360 16.056 27.750
 328 1 10 0.2266 19.435 13.763 25.595
 329 1 2 0.0871 21.053 11.793 26.622
 330 1 6 0.1829 19.586 11.731 25.658
 331 1 1 -0.0632 18.685 15.306 31.741
 332 1 4 -0.2623 18.785 20.987 30.190
 333 1 11 -0.2514 18.919 12.481 25.541
 334 1 4 -0.2763 21.108 14.166 30.316
 335 1 1 0.0277 20.913 13.822 25.859
 336 1 4 -0.2763 18.759 14.771 25.484
 337 1 2 0.0866 19.578 15.768 31.338
 338 1 2 0.0866 18.444 19.496 26.887
 339 1 1 0.0078 18.625 13.916 31.971
 340 1 1 -0.0632 21.414 20.527 31.578
 341 1 2 0.0839 19.932 20.758 25.371
 342 1 2 0.0896 21.639 16.711 27.703
 343 1 1 -0.043 21.268 17.581 27.170
 344 1 11 -0.2514 19.736 13.040 31.787
 345 1 1 -0.0801 20.294 19.853 25.853
 346 1 1 -0.0531 21.592 12.707 26.394
 347 1 1 -0.0531 21.624 15.011 25.598
 348 1 6 0.1829 19.673 12.181 32.320
 349 1 1 0.0078 21.567 17.846 32.406
 350 1 11 -0.2514 21.508 16.511 32.872
 351 1 1 0.0078 20.971 20.166 32.861
 352 1 10 0.2266 24.344 21.612 26.682
 353 1 10 0.2266 25.280 15.642 29.494
 354 1 6 0.1829 23.935 18.372 25.442
 355 1 1 0.0078 22.036 18.175 26.153
 356 1 1 0.0078 25.158 18.111 29.945
 357 1 1 -0.043 25.084 18.618 28.638
 358 1 1 0.0078 25.203 19.994 28.394
 359 1 11 -0.2514 24.828 16.758 30.171
 360 1 2 0.0896 24.865 17.943 27.821
 361 1 1 -0.0632 21.983 18.205 31.109
 362 1 1 0.0277 22.993 15.116 25.916
 363 1 4 -0.2763 24.835 11.722 27.669
 364 1 10 0.2266 23.719 11.577 27.209
 365 1 11 -0.2514 25.062 20.487 27.064
 366 1 10 0.2266 23.814 16.368 25.673
 367 1 2 0.0871 23.568 13.337 31.296
 368 1 6 0.1829 23.921 16.641 30.609
 369 1 1 -0.0531 23.239 12.306 31.212
 370 1 2 0.0871 24.716 14.015 26.595
 371 1 4 -0.2763 24.529 14.688 29.407
 372 1 1 -0.0531 23.650 13.971 26.409
 373 1 2 0.0839 22.193 19.832 29.687
 374 1 4 -0.2763 25.013 16.278 25.480
 375 1 1 0.0277 22.968 12.765 26.659
 376 1 11 -0.2514 23.285 17.654 25.728
 377 1 2 0.0866 22.343 17.455 30.414
 378 1 1 -0.0801 21.898 19.547 30.695
 379 1 1 0.0278 21.858 12.048 31.078
 380 1 4 -0.2763 23.703 15.935 32.826
 381 1 1 0.0278 24.169 11.249 31.336
 382 1 1 -0.0632 25.383 18.976 31.029
 383 1 6 0.1829 25.491 19.936 26.337
 384 1 1 -0.043 32.134 17.592 31.822
 385 1 1 -0.0531 27.710 16.506 29.236
 386 1 11 -0.2514 27.875 21.222 25.199
 387 1 1 -0.0531 27.038 14.427 28.199
 388 1 1 -0.0632 30.204 13.840 32.069
 389 1 2 0.0871 27.530 17.348 29.894
 390 1 1 -0.0531 29.339 15.151 28.035
 391 1 2 0.0896 31.128 17.811 32.160
 392 1 6 0.1829 27.429 20.317 25.188
 393 1 1 -0.0632 27.813 14.263 32.231
 394 1 10 0.2266 28.718 12.867 27.193
 395 1 1 -0.043 28.625 12.310 31.042
 396 1 1 0.0078 27.550 13.090 31.505
 397 1 11 -0.2514 31.069 11.799 31.116
 398 1 2 0.0866 25.415 18.593 32.048
 399 1 1 0.0078 31.496 19.491 25.403
 400 1 1 0.0277 28.346 14.204 27.752
 401 1 6 0.1829 25.623 13.377 30.792
 402 1 2 0.0871 26.311 13.641 28.053
 403 1 6 0.1829 31.145 20.881 26.908
 404 1 1 -0.0632 28.662 20.943 27.503
 405 1 2 0.0839 25.653 21.029 31.637
 406 1 11 -0.2514 26.205 12.693 31.258
 407 1 4 -0.2763 29.255 12.030 27.893
 408 1 6 0.1829 31.956 12.289 31.097
 409 1 2 0.0871 30.364 14.963 27.729
 410 1 2 0.0866 28.951 19.919 27.287
 411 1 1 -0.043 31.648 18.100 25.207
 412 1 6 0.1829 31.062 15.354 29.914
 413 1 2 0.0839 29.262 20.800 29.583
 414 1 10 0.2266 25.640 11.473 31.607
 415 1 1 0.0277 26.687 15.576 28.934
 416 1 2 0.0839 32.004 13.384 27.352
 417 1 1 0.0277 29.035 16.275 28.823
 418 1 1 -0.0632 25.430 20.858 29.485
 419 1 2 0.0896 31.890 17.469 26.055
 420 1 1 -0.0801 25.512 20.354 30.796
 421 1 1 -0.0801 28.829 21.431 28.811
 422 1 11 -0.2514 28.312 12.548 25.912
 423 1 1 0.0078 32.292 16.840 30.647
 424 1 2 0.0866 26.990 14.872 32.593
 425 1 11 -0.2514 31.166 16.361 29.940
 426 1 10 0.2266 30.142 17.109 29.386
 427 1 11 -0.2514 31.737 20.095 26.672
 428 1 4 -0.2763 30.064 18.321 29.489
 429 1 1 0.0078 29.955 12.648 31.369
 430 1 1 0.0078 28.121 21.766 26.493
 431 1 2 0.0896 28.402 11.427 30.460
 432 1 6 0.1829 28.508 11.600 25.614
 433 1 1 -0.0801 29.138 14.645 32.501
 434 1 2 0.0866 31.224 14.121 32.319
 435 1 2 0.0866 17.237 17.226 35.865
 436 1 6 0.1829 14.728 19.632 37.849
 437 1 1 0.04 11.589 12.166 35.271
 438 1 1 -0.0801 15.640 15.938 36.560
 439 1 2 0.0866 18.107 12.466 38.645
 440 1 1 -0.0632 17.254 19.571 38.096
 441 1 1 0.0078 16.365 20.386 38.805
 442 1 2 0.0871 16.956 21.722 35.407
 443 1 2 0.0872 12.570 19.743 37.598
 444 1 2 0.0866 16.896 18.658 37.638
 445 1 1 -0.0521 12.821 12.504 34.669
 446 1 11 -0.2514 14.997 20.011 38.749
 447 1 1 0.0278 13.086 12.180 33.320
 448 1 2 0.0839 16.264 15.423 37.287
 449 1 1 -0.0531 12.792 17.551 40.197
 450 1 10 0.2266 14.181 19.632 39.801
 451 1 1 0.0586 11.350 17.967 37.815
 452 1 2 0.0872 13.576 13.012 35.259
 453 1 1 0.0078 15.364 17.673 34.876
 454 1 4 -0.2623 11.832 13.515 37.241
 455 1 1 0.0078 13.496 16.191 35.426
 456 1 6 0.1829 17.427 13.133 36.149
 457 1 1 -0.0507 12.356 18.873 38.210
 458 1 10 0.2266 15.234 19.958 33.945
 459 1 2 0.0866 13.905 14.745 37.002
 460 1 1 0.0278 13.079 18.680 39.404
 461 1 1 0.0278 11.818 16.605 39.808
 462 1 1 -0.043 14.024 17.286 34.726
 463 1 2 0.0896 13.401 17.805 34.004
 464 1 6 0.1829 16.449 18.432 33.284
 465 1 12 0.2765 11.298 12.568 36.696
 466 1 1 -0.0632 16.187 16.966 35.769
 467 1 11 -0.2514 12.195 15.730 35.075
 468 1 11 -0.2514 15.856 18.723 34.052
 469 1 1 -0.0632 14.295 15.557 36.399
 470 1 11 -0.2514 15.088 13.616 33.193
 471 1 4 -0.2763 14.411 20.308 34.772
 472 1 6 0.1829 14.643 14.128 33.944
 473 1 2 0.0839 12.854 11.430 38.745
 474 1 6 0.1829 11.544 15.588 35.838
 475 1 10 0.2266 11.708 15.619 33.772
 476 1 1 -0.043 16.839 21.578 39.396
 477 1 10 0.2266 11.552 15.413 40.705
 478 1 11 -0.2514 20.496 17.212 38.431
 479 1 1 -0.0632 19.560 15.365 39.704
 480 1 10 0.2266 19.426 21.008 34.661
 481 1 11 -0.2514 18.410 13.378 36.154
 482 1 1 0.0278 20.647 12.943 35.108
 483 1 1 -0.0801 18.584 19.954 37.919
 484 1 4 -0.2763 18.777 19.981 34.774
 485 1 2 0.0839 19.239 19.346 37.306
 486 1 6 0.1829 20.612 16.249 33.257
 487 1 2 0.0866 20.074 21.427 38.271
 488 1 1 -0.0801 18.919 14.119 39.769
 489 1 1 -0.0632 18.571 13.448 38.586
 490 1 10 0.2266 19.214 12.551 35.384
 491 1 1 0.0078 18.815 14.048 37.335
 492 1 1 -0.043 19.399 15.322 37.280
 493 1 1 0.0078 19.819 15.966 38.461
 494 1 11 -0.2514 20.433 21.158 33.721
 495 1 2 0.0839 19.256 18.082 40.766
 496 1 2 0.0866 19.869 15.855 40.622
 497 1 2 0.0871 20.144 14.901 34.373
 498 1 2 0.0896 20.746 18.528 34.261
 499 1 1 -0.043 21.071 18.826 33.270
 500 1 2 0.0896 19.532 15.806 36.320
 501 1 2 0.0839 18.709 13.670 40.735
 502 1 10 0.2266 21.422 17.647 37.494
 503 1 1 -0.0632 19.051 21.147 38.479
 504 1 6 0.1829 20.300 17.830 39.208
 505 1 1 -0.0531 20.952 14.197 34.535
 506 1 4 -0.2763 18.734 11.558 34.869
 507 1 1 -0.0507 21.665 11.974 35.193
 508 1 4 -0.2763 21.718 16.990 36.510
 509 1 2 0.0871 21.821 18.986 39.883
 510 1 1 -0.0531 22.150 19.556 39.024
 511 1 2 0.0871 24.722 18.657 38.767
 512 1 1 0.04 23.075 21.008 36.799
 513 1 6 0.1829 24.454 16.371 35.409
 514 1 1 -0.0632 24.769 13.447 39.219
 515 1 1 0.0078 24.100 14.668 39.414
 516 1 1 -0.043 24.139 15.643 38.407
 517 1 1 0.0078 24.852 15.421 37.217
 518 1 11 -0.2514 24.979 16.469 36.271
 519 1 2 0.0896 23.651 16.596 38.570
 520 1 2 0.0872 24.269 13.743 33.877
 521 1 1 -0.0521 22.523 19.726 36.636
 522 1 2 0.0866 24.771 12.697 40.002
 523 1 1 0.0278 22.033 19.001 37.733
 524 1 1 -0.0521 23.166 21.555 38.095
 525 1 1 0.0278 22.730 20.827 39.222
 526 1 11 -0.2514 23.475 14.983 40.647
 527 1 10 0.2266 22.568 15.692 33.200
 528 1 7 -0.2415 25.313 11.664 34.884
 529 1 10 0.2266 22.857 21.381 40.622
 530 1 2 0.0872 22.458 19.296 35.641
 531 1 4 -0.2623 23.676 21.240 34.486
 532 1 1 -0.0507 23.268 13.530 34.243
 533 1 1 0.0586 22.980 12.264 34.783
 534 1 1 0.0278 22.249 14.477 34.040
 535 1 12 0.2765 23.562 21.752 35.584
 536 1 1 -0.0801 25.463 13.206 38.020
 537 1 1 -0.0632 25.495 14.188 37.014
 538 1 9 0.2886 31.412 16.993 40.198
 539 1 2 0.0871 30.938 13.110 39.678
 540 1 7 -0.379 30.463 17.143 40.353
 541 1 1 -0.0531 31.403 20.114 36.565
 542 1 4 -0.2623 30.594 17.004 38.136
 543 1 1 0.0278 31.689 20.564 37.870
 544 1 2 0.0839 28.730 13.873 35.791
 545 1 2 0.0866 26.045 13.999 36.095
 546 1 2 0.0839 29.344 15.550 33.065
 547 1 1 -0.043 32.107 12.000 36.231
 548 1 1 -0.0521 27.793 18.194 40.175
 549 1 1 0.0078 32.092 13.404 36.206
 550 1 6 0.1829 27.400 11.973 39.574
 551 1 1 0.0278 26.419 17.827 37.742
 552 1 10 0.2266 25.680 17.650 36.449
 553 1 1 -0.0531 25.770 18.394 38.846
 554 1 1 -0.0801 29.675 13.352 35.906
 555 1 1 -0.0531 31.413 12.134 39.640
 556 1 1 -0.0801 27.427 21.798 35.683
 557 1 1 -0.0632 30.862 14.079 36.090
 558 1 2 0.0896 26.769 21.237 40.207
 559 1 2 0.0866 28.793 11.384 35.703
 560 1 12 0.2765 29.926 17.257 39.122
 561 1 1 -0.0632 29.707 11.950 35.862
 562 1 1 0.04 28.471 17.646 39.060
 563 1 1 -0.0632 27.761 21.149 36.885
 564 1 2 0.0866 28.979 14.472 40.503
 565 1 1 -0.0521 27.769 17.460 37.851
 566 1 1 0.0278 26.431 18.548 40.075
 567 1 4 -0.2763 25.647 18.539 35.618
 568 1 1 0.0078 28.882 21.566 37.619
 569 1 2 0.0872 28.269 17.026 36.989
 570 1 4 -0.2763 30.983 19.574 33.734
 571 1 11 -0.2514 29.354 20.831 38.734
 572 1 2 0.0866 27.194 20.283 37.199
 573 1 4 -0.2763 31.019 20.225 40.128
 574 1 2 0.0871 30.448 19.638 36.349
 575 1 10 0.2266 30.673 20.474 38.988
 576 1 1 0.0278 32.361 20.226 35.541
 577 1 2 0.0866 30.819 15.162 36.130
 578 1 2 0.0839 25.988 12.266 37.872
 579 1 1 0.0078 30.917 11.271 36.063
 580 1 10 0.2266 32.102 19.577 34.214
 581 1 11 -0.2514 28.367 11.932 39.871
 582 1 2 0.0839 26.580 21.448 35.098
 583 1 6 0.1829 28.715 20.765 39.517
 584 1 4 -0.2763 14.467 19.849 40.967
 585 1 1 -0.0632 16.013 14.007 42.850
 586 1 2 0.0866 12.101 12.721 41.984
 587 1 2 0.0866 17.147 18.587 41.977
 588 1 2 0.0871 13.361 17.384 41.107
 589 1 2 0.0866 16.547 14.294 41.950
 590 1 2 0.0839 14.091 14.210 41.918
 591 1 1 -0.0801 14.615 13.962 42.834
 592 1 4 -0.2763 11.938 15.399 41.860
 593 1 1 -0.0632 18.100 18.684 42.489
 594 1 2 0.0866 12.819 13.627 43.977
 595 1 1 -0.0801 14.445 17.186 44.273
 596 1 1 0.0078 16.715 13.722 44.029
 597 1 1 -0.0531 14.513 20.875 45.316
 598 1 11 -0.2514 14.397 15.750 47.711
 599 1 6 0.1829 16.349 20.133 43.859
 600 1 7 -0.379 17.969 12.277 48.183
 601 1 4 -0.2763 17.192 18.697 46.539
 602 1 2 0.0871 14.728 20.851 44.253
 603 1 1 0.0278 13.198 12.063 48.573
 604 1 1 -0.0521 13.072 21.571 47.142
 605 1 2 0.0866 15.750 15.949 45.453
 606 1 4 -0.2763 15.253 11.594 47.489
 607 1 10 0.2266 14.172 12.144 47.421
 608 1 1 -0.0632 13.262 17.934 44.254
 609 1 1 0.0078 18.140 19.117 43.826
 610 1 6 0.1829 11.812 19.928 45.726
 611 1 1 -0.043 16.002 13.326 45.182
 612 1 1 0.0078 14.587 13.256 45.172
 613 1 2 0.0896 16.553 13.112 46.086
 614 1 11 -0.2514 11.468 19.018 45.443
 615 1 9 0.2886 17.300 12.912 47.890
 616 1 1 -0.0531 11.819 12.294 48.387
 617 1 2 0.0871 11.432 12.519 47.398
 618 1 1 -0.0521 14.983 20.148 47.589
 619 1 2 0.0872 16.342 14.253 48.246
 620 1 1 0.04 13.854 20.849 48.060
 621 1 1 -0.0632 13.905 13.613 43.995
 622 1 6 0.1829 14.796 14.855 47.461
 623 1 11 -0.2514 16.946 19.567 44.447
 624 1 1 0.0278 15.326 20.151 46.220
 625 1 11 -0.2514 18.128 13.863 43.986
 626 1 1 0.0278 13.396 21.606 45.775
 627 1 2 0.0896 12.209 17.377 47.462
 628 1 11 -0.2514 13.809 12.915 46.323
 629 1 2 0.0872 15.607 19.596 48.286
 630 1 6 0.1829 12.865 13.284 46.318
 631 1 1 -0.0632 14.818 16.503 45.441
 632 1 1 0.0078 12.472 18.025 45.409
 633 1 1 0.0078 14.006 16.536 46.590
 634 1 10 0.2266 16.556 19.396 45.768
 635 1 1 -0.043 12.826 17.306 46.571
 636 1 2 0.0839 15.086 17.161 43.397
 637 1 2 0.0866 12.994 18.511 43.372
 638 1 2 0.0866 13.672 11.265 41.084
 639 1 4 -0.2763 22.135 13.161 40.910
 640 1 2 0.0866 21.451 18.317 41.926
 641 1 2 0.0871 20.437 13.379 42.811
 642 1 1 -0.0801 19.292 18.400 41.802
 643 1 1 -0.0632 20.528 18.536 42.453
 644 1 2 0.0871 20.468 16.487 45.810
 645 1 1 0.0277 20.311 14.846 44.403
 646 1 4 -0.2763 18.611 14.653 46.076
 647 1 1 0.0078 20.572 18.931 43.800
 648 1 2 0.0896 19.423 19.509 45.527
 649 1 1 -0.0632 21.528 19.588 48.070
 650 1 10 0.2266 18.984 14.376 44.949
 651 1 11 -0.2514 21.801 18.971 44.502
 652 1 1 -0.043 19.380 19.212 44.484
 653 1 1 -0.0531 20.925 15.981 44.963
 654 1 1 0.0077 21.494 20.854 48.680
 655 1 2 0.0866 21.070 19.445 47.101
 656 1 4 -0.2415 20.481 11.327 44.213
 657 1 4 -0.2763 18.897 21.202 47.748
 658 1 1 -0.0531 20.893 14.255 43.257
 659 1 7 -0.2415 20.350 11.456 46.428
 660 1 6 0.1829 18.518 13.818 43.056
 661 1 10 0.2266 22.555 14.219 41.349
 662 1 6 0.1829 23.719 15.885 41.037
 663 1 6 0.1829 25.368 12.217 42.067
 664 1 11 -0.2514 24.934 12.224 42.977
 665 1 2 0.0871 23.454 16.447 42.739
 666 1 4 -0.2763 22.241 20.889 41.549
 667 1 4 -0.2763 24.531 18.264 41.432
 668 1 1 0.0277 22.027 14.816 42.634
 669 1 6 0.1829 23.997 14.272 47.357
 670 1 1 -0.0531 22.606 15.965 43.207
 671 1 1 0.0078 25.184 13.406 43.717
 672 1 2 0.0896 24.491 12.708 45.658
 673 1 1 -0.043 24.925 13.527 45.093
 674 1 2 0.0866 24.121 21.327 43.216
 675 1 10 0.2266 22.571 17.873 44.835
 676 1 1 0.0277 22.059 16.549 44.360
 677 1 2 0.0871 22.703 14.957 48.665
 678 1 4 -0.2763 23.522 17.970 45.587
 679 1 1 0.0078 25.202 14.732 45.753
 680 1 11 -0.2514 24.785 14.846 47.094
 681 1 1 -0.0801 22.229 18.529 48.670
 682 1 2 0.0839 22.271 17.558 48.184
 683 1 6 0.1829 22.036 19.847 44.951
 684 1 10 0.2266 25.394 15.536 48.113
 685 1 11 -0.2514 26.093 19.616 42.316
 686 1 2 0.0872 28.305 18.292 41.130
 687 1 1 -0.043 28.479 11.588 42.282
 688 1 1 0.0078 27.010 20.701 42.296
 689 1 1 0.0078 28.614 12.440 41.168
 690 1 1 -0.0632 28.863 13.809 41.357
 691 1 2 0.0866 25.906 14.423 41.954
 692 1 1 -0.0801 28.929 14.332 42.656
 693 1 1 -0.043 27.202 21.520 41.160
 694 1 10 0.2266 25.591 18.846 41.284
 695 1 1 -0.0632 25.720 14.501 43.020
 696 1 2 0.0839 29.089 15.395 42.805
 697 1 6 0.1829 25.564 19.554 43.178
 698 1 2 0.0839 31.832 11.594 44.425
 699 1 6 0.1829 28.850 11.669 45.573
 700 1 6 0.1829 27.877 12.836 48.738
 701 1 4 -0.2763 30.348 17.236 44.009
 702 1 1 -0.0801 32.007 12.573 43.990
 703 1 11 -0.2514 28.361 11.326 44.756
 704 1 1 -0.0632 28.753 13.490 43.764
 705 1 2 0.0866 27.383 20.505 44.423
 706 1 1 -0.0521 30.327 19.273 46.151
 707 1 1 0.0078 32.087 14.977 44.200
 708 1 2 0.0871 27.470 11.811 47.272
 709 1 1 -0.0632 27.549 21.104 43.530
 710 1 1 -0.0632 31.812 13.723 44.762
 711 1 1 -0.0632 25.774 15.812 45.056
 712 1 2 0.0839 26.446 16.534 43.134
 713 1 11 -0.2514 32.061 16.114 45.011
 714 1 2 0.0866 25.981 16.753 45.559
 715 1 1 0.04 30.348 20.107 47.303
 716 1 1 0.0078 28.533 12.115 43.588
 717 1 1 0.0278 31.152 18.110 46.075
 718 1 12 0.2765 29.538 21.343 47.542
 719 1 2 0.0866 31.485 13.643 45.796
 720 1 10 0.2266 31.151 17.156 44.919
 721 1 1 -0.051 31.239 19.807 48.306
 722 1 4 -0.2763 26.474 16.093 47.983
 723 1 1 -0.0801 26.026 15.697 43.684
 724 1 2 0.0872 29.666 19.521 45.331
 725 1 1 -0.0521 32.026 17.838 47.132
 726 1 2 0.0866 28.775 13.911 44.766
 727 1 1 0.04 32.097 18.756 48.153
 728 1 4 -0.2623 28.863 21.879 46.698
 729 1 1 -0.0632 32.473 12.687 42.669
 730 1 8 -0.3506 16.796 16.267 54.755
 731 1 4 -0.2415 14.512 13.849 54.071
 732 1 6 0.157 16.107 15.530 54.728
 733 1 7 -0.379 14.169 20.053 50.336
 734 1 4 -0.2763 14.204 17.223 49.445
 735 1 12 0.2765 13.457 20.855 49.515
 736 1 1 -0.0645 11.651 14.805 52.320
 737 1 2 0.0839 11.768 14.873 50.167
 738 1 2 0.0866 12.493 14.128 52.422
 739 1 10 0.2266 14.549 16.127 49.043
 740 1 9 0.2886 14.865 19.641 49.800
 741 1 1 -0.0507 13.663 11.695 49.859
 742 1 1 -0.0645 16.967 17.806 52.931
 743 1 1 -0.0496 16.755 13.285 51.468
 744 1 1 0.04 16.957 13.330 50.093
 745 1 1 -0.0521 16.202 14.234 49.320
 746 1 1 0.0586 15.851 14.138 52.101
 747 1 1 -0.0507 15.154 15.111 51.334
 748 1 1 0.0278 15.301 15.141 49.921
 749 1 2 0.0872 14.478 15.814 51.823
 750 1 2 0.0866 16.029 18.256 53.249
 751 1 12 0.2765 17.971 12.383 49.520
 752 1 1 -0.0091 17.400 16.616 53.525
 753 1 1 -0.0801 17.820 18.501 52.067
 754 1 2 0.0839 17.535 19.488 51.718
 755 1 2 0.0872 14.721 11.496 50.008
 756 1 1 0.0586 12.768 11.544 50.941
 757 1 2 0.0873 17.262 12.519 52.047
 758 1 12 0.3852 15.613 13.847 53.556
 759 1 1 -0.0507 11.407 11.797 50.728
 760 1 4 -0.2623 12.557 21.551 49.951
 761 1 2 0.0866 16.174 21.592 50.305
 762 1 6 0.157 16.100 15.526 54.743
 763 1 7 -0.2415 16.705 13.426 54.247
 764 1 7 -0.379 21.831 11.650 55.697
 765 1 12 0.2765 21.781 11.790 54.327
 766 1 4 -0.2763 20.411 14.579 50.260
 767 1 1 -0.0632 19.066 17.953 51.724
 768 1 2 0.0896 18.894 15.030 53.473
 769 1 11 -0.2514 20.733 16.195 51.866
 770 1 10 0.2266 21.165 15.231 50.959
 771 1 2 0.0866 19.769 18.549 51.149
 772 1 1 0.0077 19.420 16.660 52.150
 773 1 4 -0.2623 18.761 11.752 50.201
 774 1 1 -0.0444 18.571 15.978 53.048
 775 1 6 0.1829 21.464 16.769 52.265
 776 1 4 -0.2623 20.911 12.474 53.830
 777 1 4 -0.2415 25.053 16.459 54.112
 778 1 1 -0.0645 22.998 18.779 49.815
 779 1 8 -0.3506 24.214 20.633 50.797
 780 1 2 0.0872 22.960 15.557 52.916
 781 1 1 0.0278 22.667 15.185 50.812
 782 1 2 0.0872 22.652 12.347 51.631