LAMMPS data file via write_data, version 29 Oct 2020, timestep = 213

9481 atoms
16 atom types
8874 bonds
19 bond types
11699 angles
24 angle types
18775 dihedrals
42 dihedral types

11.246593 53.753407 xlo xhi
11.246593 53.753407 ylo yhi
-18.846000 84.795000 zlo zhi

Masses

1 12.01
2 1.008
3 12.01
4 16
5 14.01
6 1.008
7 16
8 14.01
9 1.008
10 12.01
11 14.01
12 12.01
13 1.008
14 16
15 15.9994000 # OW (oxygen in water)
16  1.0080000 # HW (hydrogen in water)

Pair Coeffs # lj/cut/coul/long/omp

1 0.086 3.39967
2 0.015 2.59964
3 0.086 3.39967
4 0.21 2.95992
5 0.17 3.25
6 0.0157 1.06908
7 0.2104 3.06647
8 0.17 3.25
9 0 0
10 0.086 3.39967
11 0.17 3.25
12 0.086 3.39967
13 0.0157 1.06908
14 0.2104 3.06647
15 0.1020000 3.1880000 # OW
16 0.0000000 0.0000000 # HW

Atoms # full

 1 1 6 0.157 15.655 18.431 14.021
 2 1 1 0.04 11.859 13.947 14.493
 3 1 1 -0.0521 12.897 12.288 16.506
 4 1 2 0.0866 14.475 15.299 13.919
 5 1 4 -0.2623 18.057 19.268 13.260
 6 1 1 -0.0632 17.115 14.130 15.729
 7 1 1 0.0077 17.775 15.354 15.944
 8 1 1 -0.0444 17.267 16.543 15.403
 9 1 1 -0.0091 16.104 16.494 14.615
 10 1 8 -0.3506 15.780 17.491 13.679
 11 1 2 0.0896 17.861 17.450 15.482
 12 1 2 0.0 11.679 18.017 12.222
 13 1 1 0.04 13.010 11.928 15.147
 14 1 1 -0.0645 15.377 15.307 14.518
 15 1 1 -0.051 12.420 12.716 14.159
 16 1 2 0.0839 15.391 13.181 14.832
 17 1 2 0.0866 17.560 13.195 16.058
 18 1 2 0.0 15.335 20.118 13.135
 19 1 2 0.0872 12.457 12.414 13.119
 20 1 1 -0.0801 15.898 14.115 15.033
 21 1 1 0.0278 12.230 13.466 16.883
 22 1 1 -0.0521 11.698 14.285 15.859
 23 1 2 0.0 12.874 21.485 9.938
 24 1 6 0.157 15.656 18.431 14.027
 25 1 7 -0.379 12.147 14.894 12.219
 26 1 12 0.2765 18.294 20.425 13.006
 27 1 7 -0.379 18.035 20.846 11.711
 28 1 2 0.0866 20.567 14.652 12.009
 29 1 1 -0.0801 21.114 16.255 13.352
 30 1 1 -0.0521 18.749 20.952 15.534
 31 1 11 -0.2514 19.028 15.397 16.578
 32 1 2 0.0871 21.463 15.803 16.456
 33 1 6 0.1829 19.789 15.739 16.007
 34 1 1 0.04 18.578 21.369 14.170
 35 1 2 0.0872 18.853 19.900 15.799
 36 1 1 -0.0645 21.259 14.983 12.780
 37 1 2 0.0866 21.517 18.731 16.571
 38 1 2 0.0839 20.284 16.891 13.049
 39 1 6 0.157 23.785 13.078 12.070
 40 1 11 -0.2514 24.049 19.224 15.867
 41 1 10 0.2266 24.175 16.291 17.012
 42 1 11 -0.2514 24.100 16.307 15.619
 43 1 1 0.0077 23.113 15.872 14.701
 44 1 1 0.0078 23.434 19.629 17.096
 45 1 6 0.1829 24.933 16.675 15.176
 46 1 1 0.04 25.045 19.277 11.479
 47 1 6 0.1829 23.356 19.038 15.161
 48 1 1 -0.0444 23.260 14.611 14.109
 49 1 1 -0.0521 24.670 19.148 12.839
 50 1 2 0.0896 24.112 13.991 14.374
 51 1 2 0.0839 24.737 13.605 17.000
 52 1 10 0.2266 25.349 19.418 15.385
 53 1 8 -0.3506 22.785 13.188 12.197
 54 1 2 0.0872 23.609 19.143 13.059
 55 1 2 0.0866 21.998 17.739 14.633
 56 1 1 -0.0632 22.077 16.725 14.261
 57 1 1 -0.0091 22.392 14.211 13.080
 58 1 12 0.2765 24.196 20.019 10.479
 59 1 4 -0.2623 23.050 19.684 10.243
 60 1 7 -0.379 23.415 21.223 14.326
 61 1 6 0.157 23.789 13.082 12.074
 62 1 7 -0.379 24.574 21.330 10.389
 63 1 1 -0.043 29.021 18.339 17.102
 64 1 6 0.1829 32.391 13.567 15.131
 65 1 1 0.0278 25.642 19.288 13.876
 66 1 6 0.1829 30.083 15.225 16.545
 67 1 1 -0.0531 30.104 13.960 14.531
 68 1 4 -0.2763 27.547 16.452 15.138
 69 1 9 0.2886 29.095 20.359 13.307
 70 1 2 0.0896 28.153 18.441 16.464
 71 1 10 0.2266 31.787 12.175 13.789
 72 1 2 0.0866 26.006 12.033 15.596
 73 1 4 -0.2623 25.872 12.566 12.083
 74 1 1 -0.0632 26.463 12.431 16.497
 75 1 1 -0.0521 26.975 19.513 13.456
 76 1 2 0.0872 27.717 19.796 14.194
 77 1 6 0.1829 28.446 21.021 16.983
 78 1 1 0.04 27.366 19.382 12.104
 79 1 4 -0.2763 26.175 19.956 16.097
 80 1 12 0.2765 27.019 12.154 12.109
 81 1 1 -0.0521 29.431 12.306 12.899
 82 1 1 0.0278 30.435 12.857 13.714
 83 1 1 -0.0521 27.799 13.881 13.781
 84 1 1 0.0278 28.795 14.491 14.568
 85 1 10 0.2266 28.479 15.713 15.407
 86 1 2 0.0872 29.682 11.451 12.278
 87 1 2 0.0871 30.871 14.402 15.155
 88 1 1 0.04 28.107 12.794 12.935
 89 1 12 0.2765 28.778 19.599 11.631
 90 1 7 -0.379 29.633 20.113 12.537
 91 1 2 0.0872 26.774 14.242 13.840
 92 1 11 -0.2514 29.397 15.954 16.423
 93 1 1 0.0078 27.765 12.067 16.877
 94 1 2 0.0872 26.662 19.084 10.082
 95 1 4 -0.2623 29.110 19.483 10.465
 96 1 1 -0.051 26.388 19.139 11.134
 97 1 1 0.0277 14.541 16.775 21.728
 98 1 1 -0.0531 14.639 15.381 21.513
 99 1 2 0.0871 13.733 14.804 21.368
 100 1 1 0.0078 11.617 18.317 17.503
 101 1 4 -0.2763 18.310 15.250 18.729
 102 1 2 0.0866 12.711 20.916 20.217
 103 1 6 0.1829 17.984 13.420 20.804
 104 1 1 -0.0632 13.825 16.815 18.372
 105 1 2 0.0866 14.672 16.246 18.748
 106 1 2 0.0839 14.988 18.599 17.991
 107 1 4 -0.2763 11.991 12.791 19.137
 108 1 2 0.0872 13.349 11.668 17.282
 109 1 10 0.2266 15.960 13.263 21.025
 110 1 1 -0.0801 13.998 18.151 17.971
 111 1 4 -0.2763 12.145 16.820 21.758
 112 1 11 -0.2514 17.222 12.762 20.715
 113 1 1 -0.0632 12.890 18.905 17.548
 114 1 1 -0.0632 12.012 20.836 21.043
 115 1 1 0.0078 12.548 16.231 18.337
 116 1 10 0.2266 12.090 13.727 18.369
 117 1 6 0.1829 12.405 14.972 19.937
 118 1 11 -0.2514 12.337 14.969 18.927
 119 1 1 0.0078 17.559 11.563 20.015
 120 1 10 0.2266 13.184 17.456 21.774
 121 1 1 0.0277 15.889 14.725 21.434
 122 1 1 -0.043 11.445 16.986 17.914
 123 1 4 -0.2763 14.949 12.609 20.837
 124 1 1 -0.0531 15.732 17.503 21.927
 125 1 6 0.1829 14.073 19.299 21.623
 126 1 11 -0.2514 13.186 18.845 21.792
 127 1 1 -0.0531 17.052 15.477 21.708
 128 1 6 0.1829 13.620 12.488 23.489
 129 1 1 0.0078 15.293 20.374 24.973
 130 1 2 0.0871 12.285 13.183 22.570
 131 1 1 -0.043 16.566 12.778 24.830
 132 1 2 0.0896 16.743 13.793 24.486
 133 1 11 -0.2514 18.180 18.582 23.377
 134 1 10 0.2266 13.840 14.218 24.581
 135 1 2 0.0871 15.693 18.576 22.077
 136 1 1 0.0277 12.483 14.670 24.114
 137 1 1 0.0078 17.098 18.885 24.247
 138 1 1 -0.0531 11.841 15.719 24.787
 139 1 1 0.0078 15.301 12.200 24.642
 140 1 11 -0.2514 14.523 21.568 24.876
 141 1 1 0.0078 12.091 19.741 21.920
 142 1 2 0.0896 16.864 20.924 23.571
 143 1 1 -0.043 16.469 20.148 24.221
 144 1 11 -0.2514 14.238 12.971 24.127
 145 1 10 0.2266 18.240 17.600 22.390
 146 1 1 0.0277 16.982 16.855 22.000
 147 1 1 -0.0531 11.779 13.964 23.124
 148 1 2 0.0871 18.021 14.990 21.715
 149 1 2 0.0866 13.009 19.942 17.250
 150 1 1 -0.0531 20.965 15.204 19.748
 151 1 2 0.0866 18.969 12.604 18.741
 152 1 1 -0.0632 18.531 11.646 18.999
 153 1 2 0.0871 20.171 14.987 20.455
 154 1 1 0.0277 20.668 15.385 18.390
 155 1 4 -0.2763 18.421 20.616 18.556
 156 1 1 -0.0632 20.052 21.281 20.974
 157 1 2 0.0839 20.746 18.569 18.907
 158 1 1 -0.0531 21.715 15.654 17.485
 159 1 10 0.2266 19.236 15.333 17.940
 160 1 1 -0.0801 21.679 19.077 18.680
 161 1 10 0.2266 19.046 21.523 18.035
 162 1 2 0.0866 19.524 20.401 20.633
 163 1 1 0.0078 21.903 12.772 21.610
 164 1 6 0.1829 19.069 18.973 23.658
 165 1 2 0.0896 20.442 12.403 23.163
 166 1 1 -0.043 20.904 12.021 22.259
 167 1 1 -0.0801 20.429 21.339 22.323
 168 1 2 0.0839 20.175 20.511 22.976
 169 1 4 -0.2763 19.325 17.275 21.939
 170 1 2 0.0896 24.967 20.979 17.865
 171 1 1 -0.0531 23.296 15.696 19.300
 172 1 11 -0.2514 24.270 21.098 20.438
 173 1 1 0.0277 22.279 15.359 20.208
 174 1 10 0.2266 22.600 15.192 21.663
 175 1 10 0.2266 24.601 20.625 21.706
 176 1 2 0.0866 22.126 19.514 20.740
 177 1 4 -0.2763 25.213 16.689 17.508
 178 1 1 -0.0632 22.460 19.615 19.713
 179 1 1 -0.043 24.076 20.405 18.088
 180 1 2 0.0866 23.286 12.836 19.940
 181 1 2 0.0871 24.293 15.870 19.691
 182 1 1 -0.0632 22.500 12.277 20.440
 183 1 1 0.0078 23.613 20.362 19.415
 184 1 1 0.0277 23.042 15.835 17.918
 185 1 1 -0.0632 22.134 19.153 17.359
 186 1 11 -0.2514 22.412 13.940 22.223
 187 1 2 0.0839 24.604 13.065 23.277
 188 1 2 0.0871 25.033 20.180 24.375
 189 1 6 0.1829 22.851 13.786 23.122
 190 1 1 -0.0531 24.784 21.216 24.171
 191 1 1 0.0277 24.658 21.640 22.825
 192 1 4 -0.2763 23.167 16.066 22.290
 193 1 2 0.0866 22.159 19.832 24.767
 194 1 4 -0.2763 24.618 19.433 21.954
 195 1 10 0.2266 28.012 21.179 18.976
 196 1 1 0.0078 29.689 17.103 17.209
 197 1 1 0.0078 29.456 19.446 17.857
 198 1 11 -0.2514 28.663 20.618 17.887
 199 1 2 0.0866 31.307 16.045 18.179
 200 1 1 -0.0531 28.209 21.363 21.468
 201 1 2 0.0866 30.978 20.208 19.206
 202 1 11 -0.2514 28.017 13.592 20.264
 203 1 1 -0.0531 27.945 19.152 20.511
 204 1 2 0.0871 27.852 18.505 19.644
 205 1 1 0.0277 28.118 20.536 20.334
 206 1 1 -0.0801 31.279 18.119 18.763
 207 1 1 -0.0801 25.738 13.315 17.305
 208 1 1 -0.0632 30.615 19.349 18.649
 209 1 1 0.0277 27.787 18.598 21.793
 210 1 2 0.0871 32.067 14.623 21.603
 211 1 1 -0.0632 30.794 16.997 18.074
 212 1 2 0.0896 29.305 12.223 18.376
 213 1 6 0.1829 28.018 14.570 20.538
 214 1 1 -0.0632 26.290 13.783 18.514
 215 1 2 0.0866 25.713 14.435 19.152
 216 1 1 0.0078 27.558 13.348 18.936
 217 1 1 -0.043 28.320 12.558 18.067
 218 1 10 0.2266 28.563 12.713 21.204
 219 1 4 -0.2763 27.432 16.407 20.929
 220 1 4 -0.2763 31.754 13.153 19.402
 221 1 2 0.0896 32.107 12.507 17.203
 222 1 2 0.0839 32.167 18.033 19.384
 223 1 1 0.0078 27.208 15.253 23.570
 224 1 1 -0.0531 27.757 19.464 22.909
 225 1 6 0.1829 31.363 15.836 22.769
 226 1 1 -0.0632 31.157 20.306 24.310
 227 1 1 0.0078 27.520 13.316 25.023
 228 1 1 -0.0801 25.562 13.459 23.592
 229 1 6 0.1829 27.746 17.201 23.965
 230 1 10 0.2266 27.585 17.106 21.916
 231 1 1 -0.0632 26.040 14.663 23.054
 232 1 11 -0.2514 31.766 16.158 23.638
 233 1 1 -0.043 27.932 14.586 24.574
 234 1 1 -0.0801 31.012 19.746 23.030
 235 1 1 -0.0632 31.195 18.368 22.837
 236 1 2 0.0896 28.828 15.043 24.980
 237 1 2 0.0871 27.551 19.052 23.890
 238 1 4 -0.2763 29.151 13.169 22.166
 239 1 11 -0.2514 27.576 16.571 23.195
 240 1 1 0.0277 28.018 20.847 22.766
 241 1 1 0.0078 31.534 17.536 23.918
 242 1 2 0.0866 25.471 15.170 22.282
 243 1 2 0.0866 25.976 11.802 24.914
 244 1 1 -0.0632 26.322 12.764 24.543
 245 1 2 0.0866 31.026 21.377 24.447
 246 1 2 0.0839 30.759 20.379 22.185
 247 1 2 0.0866 31.087 17.948 21.840
 248 1 10 0.2266 28.184 21.763 23.960
 249 1 1 -0.0531 32.448 13.777 22.169
 250 1 2 0.0866 11.700 11.291 28.952
 251 1 2 0.0871 14.954 12.604 28.875
 252 1 4 -0.2763 12.809 15.922 28.637
 253 1 1 -0.0632 16.623 17.893 25.118
 254 1 2 0.0866 17.117 16.927 25.162
 255 1 1 -0.0531 14.039 20.840 31.932
 256 1 6 0.1829 13.302 12.863 29.202
 257 1 1 0.0078 17.586 12.033 25.442
 258 1 10 0.2266 13.379 14.866 28.852
 259 1 2 0.0839 15.135 17.370 26.584
 260 1 1 -0.0801 15.498 18.139 25.916
 261 1 1 -0.0632 14.822 19.364 25.829
 262 1 10 0.2266 17.821 17.159 28.500
 263 1 1 0.0278 14.005 21.236 30.580
 264 1 11 -0.2514 11.804 20.203 30.252
 265 1 1 -0.0801 17.574 16.122 32.010
 266 1 1 -0.0531 15.539 13.515 28.861
 267 1 4 -0.2763 14.441 14.807 25.464
 268 1 2 0.0866 13.919 19.519 26.412
 269 1 1 -0.0521 15.215 21.564 29.940
 270 1 4 -0.2763 17.311 18.247 28.706
 271 1 1 -0.0521 16.467 20.836 31.897
 272 1 1 -0.0632 16.382 15.553 32.482
 273 1 1 -0.0531 17.695 14.619 28.757
 274 1 1 0.04 16.450 21.330 30.576
 275 1 11 -0.2514 12.714 13.681 29.126
 276 1 6 0.1829 11.991 19.806 31.163
 277 1 10 0.2266 17.652 12.110 29.009
 278 1 1 0.0277 16.945 13.434 28.873
 279 1 10 0.2266 12.756 21.081 29.746
 280 1 2 0.0872 17.416 20.628 32.385
 281 1 1 -0.0531 15.656 15.932 28.790
 282 1 1 0.0277 17.057 15.876 28.698
 283 1 1 0.0277 14.882 14.761 28.838
 284 1 2 0.0871 15.159 16.897 28.773
 285 1 2 0.0871 12.397 16.261 25.547
 286 1 4 -0.2763 14.714 12.049 31.581
 287 1 4 -0.2763 12.708 21.493 28.597
 288 1 2 0.0896 12.064 18.694 28.073
 289 1 12 0.2765 17.741 21.486 29.820
 290 1 2 0.0839 17.629 17.192 31.823
 291 1 1 0.0078 11.330 13.400 29.245
 292 1 10 0.2266 14.371 12.571 32.630
 293 1 1 0.0078 16.299 14.170 32.703
 294 1 1 0.0278 15.263 20.592 32.582
 295 1 4 -0.2763 12.439 15.743 32.804
 296 1 1 -0.0531 12.120 11.457 32.598
 297 1 2 0.0896 17.361 12.291 32.632
 298 1 1 -0.043 17.423 13.360 32.453
 299 1 2 0.0871 13.116 20.601 32.453
 300 1 2 0.0866 15.513 16.179 32.653
 301 1 6 0.1829 13.924 21.751 25.670
 302 1 2 0.0871 21.105 15.851 25.146
 303 1 2 0.0871 18.779 14.553 28.739
 304 1 1 -0.0632 19.466 19.156 26.748
 305 1 2 0.0866 21.347 21.561 31.251
 306 1 1 0.0078 19.937 17.980 27.367
 307 1 1 -0.0632 21.558 19.338 25.525
 308 1 4 -0.2763 18.853 12.016 28.828
 309 1 10 0.2266 20.874 13.184 30.997
 310 1 11 -0.2514 19.073 17.010 27.933
 311 1 6 0.1829 19.359 16.057 27.751
 312 1 10 0.2266 19.435 13.763 25.595
 313 1 2 0.0871 21.052 11.794 26.622
 314 1 6 0.1829 19.586 11.731 25.658
 315 1 1 -0.0632 18.685 15.306 31.740
 316 1 4 -0.2623 18.785 20.989 30.190
 317 1 11 -0.2514 18.919 12.482 25.541
 318 1 4 -0.2763 21.107 14.166 30.315
 319 1 1 0.0277 20.913 13.823 25.859
 320 1 4 -0.2763 18.760 14.771 25.485
 321 1 2 0.0866 19.578 15.768 31.338
 322 1 2 0.0866 18.444 19.495 26.887
 323 1 1 0.0078 18.624 13.915 31.971
 324 1 1 -0.0632 21.414 20.527 31.578
 325 1 2 0.0839 19.932 20.757 25.371
 326 1 2 0.0896 21.640 16.711 27.701
 327 1 1 -0.043 21.268 17.581 27.170
 328 1 11 -0.2514 19.736 13.040 31.786
 329 1 1 -0.0801 20.294 19.853 25.853
 330 1 1 -0.0531 21.592 12.707 26.394
 331 1 1 -0.0531 21.624 15.011 25.598
 332 1 6 0.1829 19.674 12.182 32.321
 333 1 1 0.0078 21.566 17.846 32.406
 334 1 11 -0.2514 21.508 16.511 32.872
 335 1 1 0.0078 20.970 20.166 32.861
 336 1 10 0.2266 24.344 21.612 26.683
 337 1 10 0.2266 25.280 15.642 29.493
 338 1 6 0.1829 23.935 18.371 25.442
 339 1 1 0.0078 22.036 18.175 26.153
 340 1 1 0.0078 25.158 18.111 29.944
 341 1 1 -0.043 25.084 18.618 28.637
 342 1 1 0.0078 25.203 19.994 28.394
 343 1 11 -0.2514 24.828 16.758 30.170
 344 1 2 0.0896 24.865 17.943 27.821
 345 1 1 -0.0632 21.982 18.205 31.109
 346 1 1 0.0277 22.993 15.116 25.915
 347 1 4 -0.2763 24.835 11.721 27.669
 348 1 10 0.2266 23.719 11.577 27.209
 349 1 11 -0.2514 25.061 20.487 27.064
 350 1 10 0.2266 23.814 16.368 25.674
 351 1 2 0.0871 23.569 13.336 31.296
 352 1 6 0.1829 23.922 16.640 30.610
 353 1 1 -0.0531 23.240 12.306 31.212
 354 1 2 0.0871 24.715 14.016 26.595
 355 1 4 -0.2763 24.530 14.687 29.408
 356 1 1 -0.0531 23.650 13.971 26.409
 357 1 2 0.0839 22.193 19.831 29.688
 358 1 4 -0.2763 25.013 16.279 25.481
 359 1 1 0.0277 22.968 12.765 26.659
 360 1 11 -0.2514 23.285 17.653 25.729
 361 1 2 0.0866 22.340 17.455 30.414
 362 1 1 -0.0801 21.898 19.547 30.695
 363 1 1 0.0278 21.858 12.049 31.078
 364 1 4 -0.2763 23.703 15.936 32.826
 365 1 1 0.0278 24.169 11.249 31.336
 366 1 1 -0.0632 25.383 18.976 31.028
 367 1 6 0.1829 25.492 19.936 26.337
 368 1 1 -0.043 32.134 17.592 31.822
 369 1 1 -0.0531 27.709 16.506 29.236
 370 1 11 -0.2514 27.875 21.222 25.200
 371 1 1 -0.0531 27.038 14.427 28.199
 372 1 1 -0.0632 30.204 13.840 32.070
 373 1 2 0.0871 27.528 17.348 29.894
 374 1 1 -0.0531 29.338 15.151 28.035
 375 1 2 0.0896 31.129 17.812 32.159
 376 1 6 0.1829 27.430 20.316 25.191
 377 1 1 -0.0632 27.812 14.263 32.231
 378 1 10 0.2266 28.717 12.867 27.194
 379 1 1 -0.043 28.625 12.310 31.042
 380 1 1 0.0078 27.549 13.090 31.505
 381 1 11 -0.2514 31.069 11.799 31.117
 382 1 2 0.0866 25.414 18.593 32.047
 383 1 1 0.0078 31.496 19.491 25.403
 384 1 1 0.0277 28.346 14.204 27.752
 385 1 6 0.1829 25.621 13.376 30.793
 386 1 2 0.0871 26.311 13.641 28.053
 387 1 6 0.1829 31.145 20.881 26.908
 388 1 1 -0.0632 28.662 20.943 27.502
 389 1 2 0.0839 25.653 21.029 31.636
 390 1 11 -0.2514 26.205 12.692 31.259
 391 1 4 -0.2763 29.256 12.030 27.892
 392 1 6 0.1829 31.956 12.289 31.097
 393 1 2 0.0871 30.363 14.963 27.729
 394 1 2 0.0866 28.951 19.918 27.286
 395 1 1 -0.043 31.647 18.100 25.207
 396 1 6 0.1829 31.062 15.354 29.914
 397 1 2 0.0839 29.261 20.801 29.583
 398 1 10 0.2266 25.640 11.473 31.609
 399 1 1 0.0277 26.687 15.576 28.934
 400 1 2 0.0839 32.004 13.384 27.352
 401 1 1 0.0277 29.035 16.275 28.823
 402 1 1 -0.0632 25.430 20.858 29.484
 403 1 2 0.0896 31.891 17.469 26.055
 404 1 1 -0.0801 25.512 20.354 30.796
 405 1 1 -0.0801 28.828 21.430 28.810
 406 1 11 -0.2514 28.312 12.548 25.912
 407 1 1 0.0078 32.293 16.840 30.647
 408 1 2 0.0866 26.990 14.872 32.594
 409 1 11 -0.2514 31.166 16.361 29.940
 410 1 10 0.2266 30.143 17.109 29.386
 411 1 11 -0.2514 31.737 20.095 26.672
 412 1 4 -0.2763 30.065 18.321 29.489
 413 1 1 0.0078 29.955 12.648 31.369
 414 1 1 0.0078 28.121 21.766 26.493
 415 1 2 0.0896 28.403 11.427 30.460
 416 1 6 0.1829 28.507 11.601 25.614
 417 1 1 -0.0801 29.138 14.645 32.501
 418 1 2 0.0866 31.225 14.122 32.319
 419 1 2 0.0866 17.238 17.226 35.866
 420 1 6 0.1829 14.727 19.632 37.850
 421 1 1 0.04 11.589 12.166 35.271
 422 1 1 -0.0801 15.640 15.938 36.560
 423 1 2 0.0866 18.107 12.466 38.645
 424 1 1 -0.0632 17.254 19.570 38.095
 425 1 1 0.0078 16.365 20.386 38.805
 426 1 2 0.0871 16.957 21.721 35.407
 427 1 2 0.0872 12.569 19.742 37.597
 428 1 2 0.0866 16.896 18.658 37.638
 429 1 1 -0.0521 12.820 12.504 34.669
 430 1 11 -0.2514 14.997 20.011 38.749
 431 1 1 0.0278 13.086 12.180 33.320
 432 1 2 0.0839 16.263 15.423 37.287
 433 1 1 -0.0531 12.791 17.551 40.197
 434 1 10 0.2266 14.181 19.632 39.802
 435 1 1 0.04 11.352 17.966 37.814
 436 1 2 0.0872 13.575 13.013 35.260
 437 1 1 0.0078 15.364 17.673 34.876
 438 1 4 -0.2623 11.832 13.514 37.241
 439 1 1 0.0078 13.496 16.191 35.425
 440 1 6 0.1829 17.428 13.131 36.150
 441 1 1 -0.0521 12.357 18.872 38.210
 442 1 10 0.2266 15.234 19.959 33.945
 443 1 2 0.0866 13.906 14.746 37.002
 444 1 1 0.0278 13.079 18.680 39.404
 445 1 1 0.0278 11.818 16.605 39.808
 446 1 1 -0.043 14.024 17.286 34.726
 447 1 2 0.0896 13.401 17.805 34.005
 448 1 6 0.1829 16.449 18.432 33.285
 449 1 12 0.2765 11.298 12.568 36.696
 450 1 1 -0.0632 16.187 16.967 35.769
 451 1 11 -0.2514 12.195 15.729 35.075
 452 1 11 -0.2514 15.856 18.723 34.052
 453 1 1 -0.0632 14.295 15.558 36.398
 454 1 11 -0.2514 15.087 13.616 33.193
 455 1 4 -0.2763 14.409 20.308 34.770
 456 1 6 0.1829 14.643 14.128 33.945
 457 1 2 0.0839 12.854 11.430 38.746
 458 1 6 0.1829 11.545 15.592 35.839
 459 1 10 0.2266 11.709 15.617 33.772
 460 1 1 -0.043 16.839 21.577 39.396
 461 1 10 0.2266 11.552 15.413 40.705
 462 1 11 -0.2514 20.496 17.212 38.431
 463 1 1 -0.0632 19.560 15.365 39.704
 464 1 10 0.2266 19.426 21.008 34.661
 465 1 11 -0.2514 18.410 13.378 36.154
 466 1 1 0.0278 20.645 12.945 35.108
 467 1 1 -0.0801 18.584 19.954 37.918
 468 1 4 -0.2763 18.777 19.981 34.773
 469 1 2 0.0839 19.239 19.346 37.306
 470 1 6 0.1829 20.612 16.249 33.257
 471 1 2 0.0866 20.074 21.427 38.272
 472 1 1 -0.0801 18.919 14.119 39.769
 473 1 1 -0.0632 18.571 13.448 38.585
 474 1 10 0.2266 19.214 12.551 35.384
 475 1 1 0.0078 18.814 14.048 37.335
 476 1 1 -0.043 19.399 15.323 37.280
 477 1 1 0.0078 19.819 15.966 38.461
 478 1 11 -0.2514 20.433 21.159 33.720
 479 1 2 0.0839 19.255 18.082 40.767
 480 1 2 0.0866 19.869 15.854 40.622
 481 1 2 0.0871 20.142 14.902 34.373
 482 1 2 0.0896 20.745 18.528 34.261
 483 1 1 -0.043 21.071 18.827 33.271
 484 1 2 0.0896 19.532 15.806 36.320
 485 1 2 0.0839 18.710 13.668 40.734
 486 1 10 0.2266 21.422 17.647 37.494
 487 1 1 -0.0632 19.051 21.147 38.479
 488 1 6 0.1829 20.301 17.830 39.208
 489 1 1 -0.0531 20.951 14.198 34.535
 490 1 4 -0.2763 18.734 11.558 34.868
 491 1 1 -0.0521 21.662 11.975 35.193
 492 1 4 -0.2763 21.717 16.991 36.509
 493 1 2 0.0871 21.821 18.986 39.883
 494 1 1 -0.0531 22.150 19.556 39.024
 495 1 2 0.0871 24.721 18.658 38.767
 496 1 1 0.04 23.075 21.008 36.798
 497 1 6 0.1829 24.454 16.371 35.409
 498 1 1 -0.0632 24.770 13.447 39.219
 499 1 1 0.0078 24.100 14.668 39.414
 500 1 1 -0.043 24.139 15.643 38.407
 501 1 1 0.0078 24.852 15.421 37.217
 502 1 11 -0.2514 24.980 16.469 36.271
 503 1 2 0.0896 23.650 16.595 38.570
 504 1 2 0.0872 24.267 13.742 33.878
 505 1 1 -0.0521 22.523 19.726 36.635
 506 1 2 0.0866 24.770 12.697 40.002
 507 1 1 0.0278 22.033 19.001 37.733
 508 1 1 -0.0521 23.166 21.555 38.095
 509 1 1 0.0278 22.730 20.827 39.221
 510 1 11 -0.2514 23.476 14.983 40.648
 511 1 10 0.2266 22.568 15.694 33.200
 512 1 7 -0.379 25.306 11.660 34.877
 513 1 10 0.2266 22.857 21.381 40.621
 514 1 2 0.0872 22.458 19.296 35.641
 515 1 4 -0.2623 23.675 21.241 34.486
 516 1 1 -0.0521 23.265 13.532 34.243
 517 1 1 0.04 22.975 12.268 34.782
 518 1 1 0.0278 22.248 14.479 34.040
 519 1 12 0.2765 23.562 21.752 35.584
 520 1 1 -0.0801 25.464 13.207 38.020
 521 1 1 -0.0632 25.495 14.188 37.014
 522 1 9 0.2886 31.412 16.996 40.197
 523 1 2 0.0871 30.938 13.110 39.679
 524 1 7 -0.379 30.462 17.140 40.354
 525 1 1 -0.0531 31.402 20.113 36.566
 526 1 4 -0.2623 30.594 17.002 38.137
 527 1 1 0.0278 31.689 20.564 37.871
 528 1 2 0.0839 28.730 13.874 35.791
 529 1 2 0.0866 26.043 14.000 36.095
 530 1 2 0.0839 29.343 15.550 33.065
 531 1 1 -0.043 32.107 12.000 36.231
 532 1 1 -0.0521 27.793 18.194 40.175
 533 1 1 0.0078 32.092 13.404 36.206
 534 1 6 0.1829 27.400 11.974 39.575
 535 1 1 0.0278 26.419 17.827 37.742
 536 1 10 0.2266 25.680 17.650 36.449
 537 1 1 -0.0531 25.769 18.394 38.846
 538 1 1 -0.0801 29.675 13.352 35.906
 539 1 1 -0.0531 31.412 12.133 39.641
 540 1 1 -0.0801 27.427 21.798 35.683
 541 1 1 -0.0632 30.862 14.079 36.090
 542 1 2 0.0896 26.768 21.238 40.207
 543 1 2 0.0866 28.793 11.385 35.704
 544 1 12 0.2765 29.926 17.258 39.122
 545 1 1 -0.0632 29.707 11.950 35.863
 546 1 1 0.04 28.471 17.646 39.060
 547 1 1 -0.0632 27.761 21.149 36.884
 548 1 2 0.0866 28.978 14.472 40.503
 549 1 1 -0.0521 27.769 17.460 37.851
 550 1 1 0.0278 26.431 18.547 40.075
 551 1 4 -0.2763 25.647 18.539 35.618
 552 1 1 0.0078 28.883 21.565 37.619
 553 1 2 0.0872 28.269 17.027 36.989
 554 1 4 -0.2763 30.983 19.575 33.733
 555 1 11 -0.2514 29.354 20.830 38.733
 556 1 2 0.0866 27.193 20.284 37.200
 557 1 4 -0.2763 31.017 20.222 40.129
 558 1 2 0.0871 30.448 19.638 36.350
 559 1 10 0.2266 30.673 20.474 38.989
 560 1 1 0.0278 32.360 20.226 35.541
 561 1 2 0.0866 30.819 15.162 36.129
 562 1 2 0.0839 25.987 12.266 37.872
 563 1 1 0.0078 30.917 11.271 36.063
 564 1 10 0.2266 32.102 19.577 34.215
 565 1 11 -0.2514 28.367 11.931 39.871
 566 1 2 0.0839 26.580 21.448 35.098
 567 1 6 0.1829 28.716 20.766 39.517
 568 1 4 -0.2763 14.467 19.849 40.968
 569 1 1 -0.0632 16.012 14.007 42.850
 570 1 2 0.0866 12.101 12.721 41.983
 571 1 2 0.0866 17.147 18.587 41.976
 572 1 2 0.0871 13.361 17.384 41.106
 573 1 2 0.0866 16.547 14.294 41.949
 574 1 2 0.0839 14.091 14.209 41.918
 575 1 1 -0.0801 14.615 13.962 42.835
 576 1 4 -0.2763 11.935 15.398 41.862
 577 1 1 -0.0632 18.100 18.684 42.489
 578 1 2 0.0866 12.819 13.627 43.977
 579 1 1 -0.0801 14.445 17.185 44.275
 580 1 1 0.0078 16.714 13.722 44.029
 581 1 1 -0.0531 14.513 20.875 45.316
 582 1 11 -0.2514 14.403 15.748 47.725
 583 1 6 0.1829 16.349 20.132 43.859
 584 1 7 -0.379 17.977 12.287 48.186
 585 1 4 -0.2763 17.191 18.696 46.540
 586 1 2 0.0871 14.729 20.851 44.252
 587 1 1 0.0278 13.198 12.063 48.572
 588 1 1 -0.0521 13.071 21.569 47.142
 589 1 2 0.0866 15.750 15.949 45.453
 590 1 4 -0.2763 15.256 11.597 47.491
 591 1 10 0.2266 14.173 12.144 47.421
 592 1 1 -0.0632 13.262 17.934 44.254
 593 1 1 0.0078 18.140 19.116 43.826
 594 1 6 0.1829 11.811 19.928 45.726
 595 1 1 -0.043 16.002 13.326 45.182
 596 1 1 0.0078 14.587 13.256 45.172
 597 1 2 0.0896 16.552 13.112 46.086
 598 1 11 -0.2514 11.468 19.018 45.444
 599 1 9 0.2886 17.295 12.910 47.892
 600 1 1 -0.0531 11.819 12.294 48.386
 601 1 2 0.0871 11.432 12.519 47.398
 602 1 1 -0.0521 14.983 20.146 47.588
 603 1 2 0.0872 16.338 14.251 48.276
 604 1 1 0.04 13.853 20.846 48.060
 605 1 1 -0.0632 13.904 13.613 43.995
 606 1 6 0.1829 14.797 14.853 47.466
 607 1 11 -0.2514 16.946 19.566 44.447
 608 1 1 0.0278 15.325 20.151 46.219
 609 1 11 -0.2514 18.128 13.864 43.987
 610 1 1 0.0278 13.396 21.605 45.775
 611 1 2 0.0896 12.209 17.377 47.464
 612 1 11 -0.2514 13.810 12.916 46.323
 613 1 2 0.0872 15.608 19.595 48.284
 614 1 6 0.1829 12.866 13.283 46.318
 615 1 1 -0.0632 14.818 16.502 45.445
 616 1 1 0.0078 12.473 18.024 45.410
 617 1 1 0.0078 14.009 16.536 46.598
 618 1 10 0.2266 16.556 19.395 45.768
 619 1 1 -0.043 12.827 17.305 46.573
 620 1 2 0.0839 15.086 17.160 43.398
 621 1 2 0.0866 12.995 18.510 43.371
 622 1 2 0.0866 13.673 11.265 41.084
 623 1 4 -0.2763 22.137 13.162 40.908
 624 1 2 0.0866 21.451 18.317 41.926
 625 1 2 0.0871 20.437 13.377 42.812
 626 1 1 -0.0801 19.292 18.400 41.802
 627 1 1 -0.0632 20.528 18.536 42.453
 628 1 2 0.0871 20.468 16.486 45.810
 629 1 1 0.0277 20.312 14.845 44.403
 630 1 4 -0.2763 18.612 14.649 46.079
 631 1 1 0.0078 20.572 18.931 43.800
 632 1 2 0.0896 19.423 19.510 45.526
 633 1 1 -0.0632 21.530 19.587 48.073
 634 1 10 0.2266 18.984 14.375 44.949
 635 1 11 -0.2514 21.801 18.971 44.502
 636 1 1 -0.043 19.380 19.212 44.484
 637 1 1 -0.0531 20.925 15.980 44.963
 638 1 1 0.0077 21.496 20.854 48.683
 639 1 2 0.0866 21.071 19.444 47.104
 640 1 4 -0.2623 20.483 11.322 44.222
 641 1 4 -0.2763 18.899 21.199 47.744
 642 1 1 -0.0531 20.893 14.255 43.257
 643 1 7 -0.379 20.329 11.487 46.425
 644 1 6 0.1829 18.519 13.815 43.057
 645 1 9 0.2886 19.532 11.486 46.988
 646 1 10 0.2266 22.556 14.219 41.349
 647 1 6 0.1829 23.718 15.886 41.037
 648 1 6 0.1829 25.367 12.218 42.066
 649 1 11 -0.2514 24.936 12.224 42.977
 650 1 2 0.0871 23.454 16.447 42.740
 651 1 4 -0.2763 22.241 20.889 41.549
 652 1 4 -0.2763 24.530 18.265 41.432
 653 1 1 0.0277 22.026 14.816 42.633
 654 1 6 0.1829 23.995 14.272 47.359
 655 1 1 -0.0531 22.606 15.965 43.207
 656 1 1 0.0078 25.184 13.406 43.718
 657 1 2 0.0896 24.491 12.708 45.657
 658 1 1 -0.043 24.925 13.528 45.094
 659 1 2 0.0866 24.118 21.322 43.212
 660 1 10 0.2266 22.571 17.873 44.834
 661 1 1 0.0277 22.059 16.548 44.360
 662 1 2 0.0871 22.718 14.957 48.686
 663 1 4 -0.2763 23.522 17.970 45.587
 664 1 1 0.0078 25.201 14.732 45.756
 665 1 11 -0.2514 24.785 14.846 47.100
 666 1 1 -0.0801 22.233 18.530 48.674
 667 1 2 0.0839 22.271 17.560 48.188
 668 1 6 0.1829 22.037 19.847 44.951
 669 1 10 0.2266 25.400 15.531 48.122
 670 1 11 -0.2514 26.093 19.616 42.316
 671 1 2 0.0872 28.305 18.293 41.130
 672 1 1 -0.043 28.479 11.588 42.282
 673 1 1 0.0078 27.011 20.701 42.296
 674 1 1 0.0078 28.614 12.439 41.168
 675 1 1 -0.0632 28.863 13.809 41.357
 676 1 2 0.0866 25.906 14.423 41.954
 677 1 1 -0.0801 28.929 14.332 42.656
 678 1 1 -0.043 27.202 21.520 41.160
 679 1 10 0.2266 25.591 18.845 41.284
 680 1 1 -0.0632 25.720 14.501 43.020
 681 1 2 0.0839 29.089 15.395 42.805
 682 1 6 0.1829 25.563 19.554 43.178
 683 1 2 0.0839 31.832 11.594 44.426
 684 1 6 0.1829 28.849 11.670 45.573
 685 1 6 0.1829 27.877 12.837 48.739
 686 1 4 -0.2763 30.353 17.253 44.040
 687 1 1 -0.0801 32.008 12.573 43.990
 688 1 11 -0.2514 28.361 11.326 44.757
 689 1 1 -0.0632 28.753 13.490 43.764
 690 1 2 0.0866 27.382 20.505 44.422
 691 1 1 -0.0521 30.392 19.267 46.210
 692 1 1 0.0078 32.083 14.979 44.200
 693 1 2 0.0871 27.470 11.812 47.272
 694 1 1 -0.0632 27.549 21.105 43.530
 695 1 1 -0.0632 31.812 13.724 44.761
 696 1 1 -0.0632 25.773 15.812 45.058
 697 1 2 0.0839 26.446 16.535 43.135
 698 1 11 -0.2514 32.061 16.115 45.016
 699 1 2 0.0866 25.981 16.754 45.560
 700 1 1 0.04 30.472 20.075 47.375
 701 1 1 0.0078 28.534 12.115 43.588
 702 1 1 0.0278 31.218 18.118 46.123
 703 1 12 0.2765 29.592 21.297 47.578
 704 1 2 0.0866 31.486 13.643 45.796
 705 1 10 0.2266 31.157 17.160 44.952
 706 1 1 -0.051 31.437 19.760 48.374
 707 1 4 -0.2763 26.475 16.093 47.984
 708 1 1 -0.0801 26.026 15.697 43.685
 709 1 2 0.0872 29.697 19.514 45.396
 710 1 1 -0.0521 32.151 17.854 47.160
 711 1 2 0.0866 28.775 13.911 44.766
 712 1 1 0.04 32.362 18.694 48.261
 713 1 4 -0.2623 28.914 21.824 46.719
 714 1 1 -0.0632 32.473 12.687 42.669
 715 1 8 -0.3506 16.802 16.274 54.758
 716 1 4 -0.2623 14.563 13.813 54.169
 717 1 6 0.157 16.101 15.545 54.731
 718 1 7 -0.379 14.205 20.094 50.348
 719 1 4 -0.2763 14.209 17.215 49.459
 720 1 12 0.2765 13.463 20.858 49.517
 721 1 1 -0.0645 11.687 14.819 52.306
 722 1 2 0.0839 11.763 14.858 50.157
 723 1 2 0.0866 12.503 14.113 52.406
 724 1 10 0.2266 14.553 16.115 49.066
 725 1 9 0.2886 14.867 19.643 49.799
 726 1 1 -0.0521 13.664 11.696 49.858
 727 1 1 -0.0645 16.969 17.807 52.932
 728 1 1 -0.051 16.774 13.277 51.516
 729 1 1 0.04 16.958 13.323 50.128
 730 1 1 -0.0521 16.203 14.226 49.354
 731 1 1 0.04 15.886 14.129 52.180
 732 1 1 -0.0521 15.175 15.090 51.388
 733 1 1 0.0278 15.304 15.128 49.963
 734 1 2 0.0872 14.493 15.795 51.860
 735 1 2 0.0866 16.030 18.255 53.248
 736 1 12 0.2765 17.967 12.381 49.530
 737 1 1 -0.0091 17.405 16.621 53.528
 738 1 1 -0.0801 17.821 18.500 52.066
 739 1 2 0.0839 17.536 19.486 51.715
 740 1 2 0.0872 14.721 11.496 50.009
 741 1 1 0.04 12.770 11.547 50.940
 742 1 2 0.0872 17.284 12.510 52.085
 743 1 12 0.2765 15.670 13.839 53.669
 744 1 1 -0.0521 11.408 11.798 50.728
 745 1 4 -0.2623 12.558 21.549 49.952
 746 1 6 0.157 16.100 15.542 54.725
 747 1 7 -0.379 16.759 13.408 54.393
 748 1 7 -0.379 21.904 11.728 55.706
 749 1 12 0.2765 21.722 11.753 54.341
 750 1 4 -0.2763 20.434 14.581 50.265
 751 1 1 -0.0632 19.068 17.952 51.723
 752 1 2 0.0896 18.892 15.030 53.473
 753 1 11 -0.2514 20.739 16.195 51.871
 754 1 10 0.2266 21.185 15.228 50.974
 755 1 2 0.0866 19.770 18.547 51.147
 756 1 1 0.0077 19.423 16.658 52.149
 757 1 4 -0.2623 18.764 11.750 50.199
 758 1 1 -0.0444 18.573 15.979 53.049
 759 1 6 0.1829 21.468 16.771 52.268
 760 1 4 -0.2623 20.874 12.477 53.861
 761 1 4 -0.2623 25.170 16.638 54.094
 762 1 1 -0.0645 23.009 18.784 49.816
 763 1 8 -0.3506 24.245 20.656 50.779
 764 1 2 0.0872 22.990 15.590 52.930
 765 1 1 0.0278 22.694 15.199 50.835
 766 1 2 0.0872 22.638 12.354 51.637
 767 1 1 -0.0091 23.051 20.091 50.328
 768 1 1 -0.0531 23.326 15.127 49.574
 769 1 1 -0.0444 22.143 21.054 49.897
 770 1 4 -0.2763 25.030 12.277 49.654
 771 1 2 0.0866 23.714 18.037 50.162
 772 1 1 -0.0521 23.476 15.512 51.965
 773 1 1 -0.0521 23.184 11.568 52.155
 774 1 1 0.04 24.794 15.980 51.830
 775 1 1 0.0278 24.707 15.433 49.453
 776 1 6 0.157 24.287 21.650 50.586
 777 1 12 0.2765 25.369 16.862 52.913
 778 1 6 0.157 24.283 21.653 50.583
 779 1 7 -0.379 26.217 17.846 52.488
 780 1 4 -0.2623 32.448 17.475 50.265
 781 1 1 -0.0645 32.067 17.503 53.909
 782 1 6 0.157 27.002 15.697 54.118
 783 1 2 0.0839 31.630 19.067 55.298