LAMMPS data file via write_data, version 29 Oct 2020, timestep = 1182

9739 atoms
16 atom types
9169 bonds
19 bond types
12129 angles
24 angle types
19475 dihedrals
42 dihedral types

11.246593 53.753407 xlo xhi
11.246593 53.753407 ylo yhi
-18.829 84.813 zlo zhi

Masses

1 12.01
2 1.008
3 12.01
4 16
5 14.01
6 1.008
7 16
8 14.01
9 1.008
10 12.01
11 14.01
12 12.01
13 1.008
14 16
15 15.9994
16 1.008

Pair Coeffs # lj/cut/coul/long/omp

1 0.086 3.39967
2 0.015 2.59964
3 0.086 3.39967
4 0.21 2.95992
5 0.17 3.25
6 0.0157 1.06908
7 0.2104 3.06647
8 0.17 3.25
9 0 0
10 0.086 3.39967
11 0.17 3.25
12 0.086 3.39967
13 0.0157 1.06908
14 0.2104 3.06647
15 0.102 3.188
16 0 0

Atoms # full

6867 44 16 0.415 11.307346074614905 12.896543273362743 -17.836081076800493 0 0 0
6868 44 16 0.415 11.299196178181075 12.908125463952178 -17.851341103315026 0 0 0
7133 133 15 -0.83 15.677594232873636 15.85842682746486 -18.51484931930671 0 0 0
7134 133 16 0.415 16.538333040815527 15.879416003413802 -18.08539211640846 0 0 0
7135 133 16 0.415 16.536314472902113 15.891775624813212 -18.071429941814362 0 0 0
7364 210 15 -0.83 14.083664924861127 17.95270653515069 -13.043188232143919 0 0 0
7365 210 16 0.415 13.319226856791904 17.939939931430246 -12.461068887985766 0 0 0
7366 210 16 0.415 13.326784484517823 17.947618872516177 -12.441887950455332 0 0 0
7475 247 15 -0.83 13.75288412553417 11.565700190260516 -15.42683770046672 0 0 0
7476 247 16 0.415 14.062142682033524 12.356405144838517 -14.965754212513577 0 0 0
7477 247 16 0.415 14.053464080084865 12.356123799473886 -14.950022133420815 0 0 0
7679 315 15 -0.83 17.164533989486305 14.450105231062015 -15.394908757693853 0 0 0
7680 315 16 0.415 17.10188316047538 14.930618453607527 -14.561380285721706 0 0 0
7681 315 16 0.415 17.088162173636043 14.922406788361348 -14.552360466858433 0 0 0
6743 3 15 -0.83 17.03544086904247 11.441649932288833 -7.223864283477846 0 0 0
6745 3 16 0.415 17.222984982077527 11.435211866600257 -6.269194465360063 0 0 0
6764 10 15 -0.83 15.395568298307037 15.33098535839226 -11.41426172976315 0 0 0
6765 10 16 0.415 15.701574358932252 15.276920241052196 -10.502593191093943 0 0 0
6766 10 16 0.415 15.717084768486451 15.278750490358476 -10.503550004365774 0 0 0
6875 47 15 -0.83 15.939884076608626 16.759220932580853 -8.395285563459945 0 0 0
6876 47 16 0.415 16.070582455410648 17.442196145451053 -7.726869313799691 0 0 0
6877 47 16 0.415 16.068156586920942 17.433574907396853 -7.711003193607669 0 0 0
7103 123 15 -0.83 14.511021777638877 11.755996449678227 -10.900109643907136 0 0 0
7104 123 16 0.415 15.055566062917205 11.27585038008033 -10.21114288547894 0 0 0
7377 214 16 0.415 11.618456336965973 15.302755537570837 -9.446355297584702 0 0 0
7378 214 16 0.415 11.614570881141976 15.30156229724588 -9.465017249676453 0 0 0
6744 3 16 0.415 17.243564823607542 11.432725019719493 -6.279709436962004 0 0 0
7105 123 16 0.415 15.051267174370192 11.274074999943226 -10.206619749389658 0 0 0
7470 245 16 0.415 18.724924797040845 12.219714445504852 -16.55698481328522 0 0 0
6878 48 15 -0.83 23.52566665715136 16.90834132077618 -14.206713738632468 0 0 0
6879 48 16 0.415 23.329840859572123 17.685396998866803 -13.679797245530994 0 0 0
6880 48 16 0.415 23.312491087175804 17.693870627883346 -13.688998982740397 0 0 0
7469 245 15 -0.83 18.813436972386874 11.320121047605324 -16.879679490882868 0 0 0
7471 245 16 0.415 18.740605345161168 12.223728562069759 -16.55102693634595 0 0 0
7481 249 15 -0.83 18.650909351559235 11.745424966474234 -12.56173770197495 0 0 0
7482 249 16 0.415 19.451492826023525 12.003895657055452 -12.100088316087776 0 0 0
7622 296 15 -0.83 21.57795265709191 16.05994429480079 -18.43020822602524 0 0 0
7623 296 16 0.415 22.077551321645124 16.341379516400995 -17.657218075542332 0 0 0
7624 296 16 0.415 22.088861131633077 16.326898071848426 -17.653405342885915 0 0 0
7483 249 16 0.415 19.44542321990939 12.008775303917115 -12.082088902026449 0 0 0
7349 205 15 -0.83 24.82069950632934 14.75142908587542 -10.168088370316587 0 0 0
7350 205 16 0.415 24.382591675069264 14.133870663615395 -9.58268730792793 0 0 0
7351 205 16 0.415 24.398052895188208 14.126541180207422 -9.57017419341147 0 0 0
7437 234 16 0.415 21.435381157856042 13.270681699463731 -6.00853154961312 0 0 0
7438 234 16 0.415 21.443371862034347 13.279293880058358 -5.99647736026512 0 0 0
7592 286 15 -0.83 20.16363126077983 16.4574377646047 -8.236473989498098 0 0 0
7593 286 16 0.415 20.83797352448445 17.084164244527134 -8.51780636162351 0 0 0
7594 286 16 0.415 20.83313970624286 17.08881470585287 -8.534245511043562 0 0 0
7655 307 15 -0.83 24.424757773989857 16.68074349212236 -7.300869680435403 0 0 0
7656 307 16 0.415 24.953609405354783 17.414469804052537 -6.970497499654229 0 0 0
7657 307 16 0.415 24.961930624534684 17.408029070047974 -6.9570513333687956 0 0 0
7718 328 15 -0.83 21.921673208155767 11.95679732141819 -9.54000881786623 0 0 0
7720 328 16 0.415 22.669432188717483 11.518809226164684 -10.056463995843709 0 0 0
7719 328 16 0.415 22.670571313842867 11.508538759768498 -10.031681221555965 0 0 0
7061 109 15 -0.83 26.87738848078623 17.964527236123597 -14.45637559780143 0 0 0
7062 109 16 0.415 27.14378403483282 17.068421963894323 -14.251090552993448 0 0 0
7063 109 16 0.415 27.147570817375826 17.068679328886212 -14.230866366218818 0 0 0
7070 112 15 -0.83 30.889946512206944 16.122371546731966 -12.30215859283148 0 0 0
7071 112 16 0.415 31.191006038711542 16.896388147118223 -12.78811047237522 0 0 0
7072 112 16 0.415 31.198723292493508 16.905121034704884 -12.777302739490512 0 0 0
7340 202 15 -0.83 29.747417681267663 15.838213251700164 -17.910912670846713 0 0 0
7341 202 16 0.415 29.012860133301764 15.437407005165673 -18.37881391889569 0 0 0
7342 202 16 0.415 29.01975303328717 15.416476567561183 -18.38322973334321 0 0 0
7616 294 15 -0.83 31.753738363448747 13.421813556145757 -16.285590473597154 0 0 0
7617 294 16 0.415 32.29333372388307 13.477673698564393 -15.493292182418427 0 0 0
7618 294 16 0.415 32.301323463072265 13.45846477107829 -15.491031532054722 0 0 0
8144 470 15 -0.83 27.72784640272361 12.108559099219248 -15.78474463626476 0 0 0
8145 470 16 0.415 28.643737582379416 12.266679792503165 -15.53574687772432 0 0 0
8146 470 16 0.415 28.647557699334797 12.253068047335034 -15.522240110290843 0 0 0
7250 172 15 -0.83 32.063782354535725 18.322173057674576 -15.016475163087804 0 0 0
6803 23 15 -0.83 27.479458664273306 12.323943070182201 -9.463177116417134 0 0 0
6804 23 16 0.415 28.384889358948545 12.467570848062735 -9.757357310278104 0 0 0
6805 23 16 0.415 28.383675009413995 12.48334556375869 -9.76996602298778 0 0 0
7745 337 15 -0.83 28.934135540476635 17.546663708907737 -8.361881206706332 0 0 0
7746 337 16 0.415 28.756142037897597 16.950557147773146 -9.096245454987764 0 0 0
7747 337 16 0.415 28.748766227282704 16.934438120196006 -9.08781363564748 0 0 0
7767 344 16 0.415 32.28951231998448 17.524424578167984 -8.007118727937431 0 0 0
8222 496 15 -0.83 30.597111267751504 14.650722071740518 -8.781874515053874 0 0 0
8223 496 16 0.415 31.485941049487536 14.334618400474119 -8.966054084394187 0 0 0
8224 496 16 0.415 31.4946600031804 14.333206887303371 -8.947912866768025 0 0 0
7768 344 16 0.415 32.2982898998619 17.51442624388804 -8.023708775073537 0 0 0
6824 30 15 -0.83 17.8395516719563 18.6133593665421 -14.339391303905241 0 0 0
6825 30 16 0.415 16.9236144503856 18.652567614441967 -14.063430149986463 0 0 0
6826 30 16 0.415 16.91307805847994 18.65476890370512 -14.080896573352844 0 0 0
7229 165 15 -0.83 11.647883630254427 23.270067193639385 -13.074165917888795 0 0 0
7231 165 16 0.415 11.479785772000366 23.563891989313728 -12.160401633401188 0 0 0
7262 176 15 -0.83 16.61362946430001 22.215786622605144 -16.30777458570118 0 0 0
7263 176 16 0.415 17.43041512787566 22.45938564152981 -16.751032126601952 0 0 0
7264 176 16 0.415 17.431820065685756 22.47913987239301 -16.74842439322611 0 0 0
7397 221 15 -0.83 15.381739644991582 22.39589402937013 -12.36758148072836 0 0 0
7398 221 16 0.415 15.285317488518888 21.629001510856742 -12.9301970318871 0 0 0
7399 221 16 0.415 15.306575398590395 21.628535665321294 -12.943970233633346 0 0 0
7938 401 16 0.415 11.346737017334624 19.49208066648016 -17.70762821758561 1 0 0
7939 401 16 0.415 11.347723746548157 19.477079654320843 -17.694258620268016 1 0 0
7230 165 16 0.415 11.476553646275475 23.549689477738827 -12.160537915694558 0 0 0
6890 52 15 -0.83 11.7089419196803 22.631968088330353 -9.161482952712836 0 0 0
6891 52 16 0.415 11.359021903459643 21.855053164869393 -8.72691056438166 0 0 0
7346 204 15 -0.83 15.224164013058315 21.272465455646174 -9.193641426939578 0 0 0
7347 204 16 0.415 15.159711365092658 22.188884371110714 -8.911308656799408 0 0 0
7348 204 16 0.415 15.16833248255881 22.18863625265537 -8.884909236497114 0 0 0
7454 240 15 -0.83 17.11300189984391 23.30971525080285 -6.282958530535836 0 0 0
7455 240 16 0.415 16.676229653522096 24.071529484693375 -5.895089234958486 0 0 0
7456 240 16 0.415 16.667637362474135 24.082467636752263 -5.912463852921904 0 0 0
6892 52 16 0.415 11.347474366443596 21.864112654822385 -8.705912460684083 0 0 0
7424 230 15 -0.83 24.43956911860387 20.87115799336065 -13.482607019503805 0 0 0
7425 230 16 0.415 23.927000279779662 21.67181809732644 -13.595303999040404 0 0 0
7426 230 16 0.415 23.94107558546615 21.686183239716144 -13.60319143698896 0 0 0
7784 350 15 -0.83 23.412052416358854 19.497698739121777 -17.729747043638195 0 0 0
7785 350 16 0.415 23.777609382722726 20.224755690928284 -17.224704440042515 0 0 0
7786 350 16 0.415 23.79246151566445 20.21536265991292 -17.211500956247292 0 0 0
9482 916 15 -0.83 19.023989743417236 18.36688369400155 -18.642670010766498 0 0 1
7162 142 16 0.415 18.570906702037995 20.280262925581695 -7.015570980884962 0 0 0
7911 392 16 0.415 19.450972961464174 21.57939683929052 -11.278346354269313 0 0 0
7160 142 15 -0.83 19.083101899066506 19.650890182427293 -6.493546328186446 0 0 0
7161 142 16 0.415 18.585469491638 20.27213713411204 -7.028948583575843 0 0 0
7910 392 15 -0.83 20.197673588312515 21.29689496121065 -10.75031395604269 0 0 0
7912 392 16 0.415 19.437537929571377 21.56264311631526 -11.27805384704898 0 0 0
7514 260 15 -0.83 25.30236545197806 20.596294179617136 -7.117726926201829 0 0 0
7252 172 16 0.415 31.55795115161243 18.803683341870997 -15.685647869171241 0 0 0
6986 84 15 -0.83 30.556490574553425 22.999521102028652 -12.535942175932103 0 0 0
6987 84 16 0.415 29.695513722497832 22.634729238978252 -12.747532515534393 0 0 0
6988 84 16 0.415 29.688191048243063 22.626378555853066 -12.72841089649215 0 0 0
7251 172 16 0.415 31.556595263012056 18.815278520965204 -15.667999291639191 0 0 0
7289 185 15 -0.83 26.641519602340395 22.19875471000499 -17.947377231220347 0 0 0
7290 185 16 0.415 26.182910231760374 22.719584940795908 -18.652643676102052 0 0 0
7291 185 16 0.415 26.189742741258595 22.738115621046536 -18.65038547652231 0 0 0
7570 278 16 0.415 26.480542558545984 25.21065611733055 -14.7735124756218 0 0 0
7934 400 15 -0.83 28.354063925686965 21.06483914939415 -15.84572991427576 0 0 0
7935 400 16 0.415 27.495136533833442 20.965790140940786 -16.281561464523673 0 0 0
7936 400 16 0.415 27.496913931726414 20.954356977736097 -16.290656467101996 0 0 0
8096 454 15 -0.83 30.29191688896426 23.129988683297277 -18.46803120110216 0 0 0
8097 454 16 0.415 29.97164420550455 22.606137567706252 -17.728227128449465 0 0 0
8098 454 16 0.415 29.972251332531243 22.618636908692487 -17.71260083523256 0 0 0
7569 278 16 0.415 26.49425866580112 25.219209734605172 -14.768876043145713 0 0 0
7515 260 16 0.415 25.482563363257835 21.430636593719612 -6.672650484462198 0 0 0
6906 57 16 0.415 26.49264821143686 19.70679970990801 -10.918893752343676 0 0 0
7675 313 16 0.415 26.136259649426062 23.573711399374222 -10.66000885327593 0 0 0
6905 57 15 -0.83 27.398664742085863 19.519225179769983 -10.66919997797521 0 0 0
6907 57 16 0.415 26.481094957299607 19.697803965330007 -10.903876961353523 0 0 0
7187 151 15 -0.83 29.906067489054784 21.97206775341166 -7.730234854850583 0 0 0
7188 151 16 0.415 29.905855598481466 21.234610425988944 -7.1141473888119675 0 0 0
7189 151 16 0.415 29.897370490211827 21.241305875969083 -7.098808171810685 0 0 0
7310 192 15 -0.83 27.282232300286008 24.29543156768482 -8.510396088593616 0 0 0
7311 192 16 0.415 27.84520363386207 24.834398980123442 -7.94272401449535 0 0 0
7312 192 16 0.415 27.85639219995952 24.84245671638301 -7.953916955406623 0 0 0
7441 235 16 0.415 31.712279427459396 24.614073812235883 -8.969401540676731 0 0 0
7516 260 16 0.415 25.488721288574514 21.42582706972832 -6.656326281452828 0 0 0
7673 313 15 -0.83 26.225439545781743 23.173998483105247 -11.538343637882374 0 0 0
7674 313 16 0.415 26.150152141789242 23.58078671211718 -10.666828379178435 0 0 0
7440 235 16 0.415 31.707882391903382 24.63198853920635 -8.979252176315882 0 0 0
6869 45 15 -0.83 17.053221926490146 26.296395912257047 -17.720211798843227 0 0 0
6870 45 16 0.415 17.45438601601515 26.047008371793066 -18.55655778200214 0 0 0
6871 45 16 0.415 17.440148954474925 26.038920699343812 -18.566480045743464 0 0 0
7211 159 15 -0.83 15.024111868930285 29.221169819921755 -17.450894699148844 0 0 0
7212 159 16 0.415 14.447712732553713 28.61007018457978 -16.987734986909953 0 0 0
7213 159 16 0.415 14.44415727758679 28.619627183331584 -16.968069539993916 0 0 0
8032 432 16 0.415 14.64628060311147 32.260155458252136 -17.840983751697603 0 0 0
8165 477 15 -0.83 16.059713015888942 28.8027429135148 -12.498074458611484 0 0 0
8166 477 16 0.415 16.78381174723546 28.48032866000109 -13.033541768540829 0 0 0
8167 477 16 0.415 16.774393630166028 28.469363835181603 -13.049203534909667 0 0 0
8031 432 16 0.415 14.643081958371514 32.26157546973339 -17.858947740596346 0 0 0
7416 227 16 0.415 17.623633498204015 25.42787555123605 -10.558212037496382 0 0 0
6772 12 16 0.415 11.694756381311128 28.702777051578398 -7.5537148014944515 0 0 0
6814 26 16 0.415 18.26117272839292 31.30405153354171 -9.3000791880548 0 0 0
6953 73 15 -0.83 11.558115238463282 27.74941386215684 -10.58311595531929 1 0 0
7238 168 15 -0.83 14.548272709947378 27.174036290317584 -6.872901127593247 0 0 0
7239 168 16 0.415 14.602467948363378 27.179831364514556 -7.839383026156734 0 0 0
7240 168 16 0.415 14.614387612403371 27.18890194469823 -7.842498558872293 0 0 0
7415 227 15 -0.83 17.613344124949876 25.49865350661928 -9.601324438412803 0 0 0
7417 227 16 0.415 17.626626767647643 25.446315883389257 -10.564491794869504 0 0 0
7628 298 15 -0.83 13.950753175164438 31.38905651941966 -6.8443135565373625 0 0 0
7629 298 16 0.415 13.873348845600962 31.729324132355437 -5.949620543599637 0 0 0
7630 298 16 0.415 13.883892614285903 31.717485606989776 -5.939091499931607 0 0 0
7811 359 15 -0.83 14.03364177832664 26.84676873843441 -10.121879525458205 0 0 0
7812 359 16 0.415 13.259743973580964 27.002620310623673 -10.698836675741171 0 0 0
7813 359 16 0.415 13.246965554862584 27.01856306193532 -10.687334046049784 0 0 0
6771 12 16 0.415 11.680198042966751 28.6977311919659 -7.552337208103218 0 0 0
6813 26 16 0.415 18.2723610007648 31.31622612204124 -9.293011730831655 0 0 0
7923 396 16 0.415 11.255256395634714 25.824615943242172 -5.907671971258473 1 0 0
7924 396 16 0.415 11.247967789296744 25.81435616162351 -5.91116549186681 1 0 0
7494 253 16 0.415 18.462989605909907 30.066969127707512 -15.85618514913386 0 0 0
7948 404 16 0.415 21.013507959751283 26.106940274926767 -13.070248572635375 0 0 0
6794 20 15 -0.83 21.5193891532969 26.965971177531525 -15.50247798559633 0 0 0
6795 20 16 0.415 21.713384223260427 27.440421147270456 -16.313879122463806 0 0 0
6796 20 16 0.415 21.703938766998416 27.43154230102247 -16.326736993992174 0 0 0
6836 34 15 -0.83 18.583721150633757 31.535715480973014 -18.117733820623098 0 0 0
7493 253 15 -0.83 18.783153527061774 30.290952195060758 -14.973227482137467 0 0 0
7495 253 16 0.415 18.474633780825602 30.057936562522126 -15.862508207235063 0 0 0
7667 311 15 -0.83 24.35259196604545 26.377412469394944 -17.658664413996966 0 0 0
7668 311 16 0.415 24.7880345535263 27.098084144460856 -18.100957250941107 0 0 0
7669 311 16 0.415 24.782724412729028 27.093159926059244 -18.130587962029853 0 0 0
7886 384 15 -0.83 24.068387345350747 26.512347890946536 -13.118790153900541 0 0 0
7887 384 16 0.415 24.421965922410788 27.17980491733769 -12.52369823887934 0 0 0
7888 384 16 0.415 24.42426743784559 27.193746274284074 -12.533697685057248 0 0 0
7946 404 15 -0.83 20.129642146458433 25.853628772165113 -12.763541580712907 0 0 0
7947 404 16 0.415 21.008412211791317 26.11934919566219 -13.060956889559051 0 0 0
8018 428 15 -0.83 22.75821811688933 31.014443327840468 -16.965946440292278 0 0 0
8019 428 16 0.415 23.150554179071957 30.825997938235115 -16.111039594731928 0 0 0
8020 428 16 0.415 23.135622105415106 30.829148800466193 -16.097821423881964 0 0 0
6812 26 15 -0.83 18.740788088807776 30.83970018638484 -8.600628299970495 0 0 0
6911 59 15 -0.83 22.895354371943778 32.27836260305066 -10.871222092400778 0 0 0
6913 59 16 0.415 22.347784631374488 32.347519031851235 -10.078144105867683 0 0 0
7069 111 16 0.415 24.83731635925852 27.204022902399185 -8.204919747725835 0 0 0
7220 162 15 -0.83 20.542269122654552 27.948027408774188 -9.500302546137213 0 0 0
7221 162 16 0.415 20.68959255771385 28.373634435715758 -8.656587261440068 0 0 0
7222 162 16 0.415 20.706388944903356 28.39138484299684 -8.661413092517611 0 0 0
7068 111 16 0.415 24.852597303068077 27.209458293098884 -8.193802215079309 0 0 0
6912 59 16 0.415 22.36821596926999 32.361356357230946 -10.07362864171002 0 0 0
8059 441 16 0.415 31.4866596515573 29.246878371230043 -8.470397696395342 0 0 0
6872 46 15 -0.83 27.668949464488726 27.903264433207813 -12.231676882638297 0 0 0
6873 46 16 0.415 28.2371597760914 28.057891953335023 -11.469691996837199 0 0 0
6998 88 15 -0.83 26.38820852957365 30.30273495735626 -15.507453263800102 0 0 0
6999 88 16 0.415 27.02918981657356 30.162732273647197 -14.799359344619727 0 0 0
7000 88 16 0.415 27.033741900122443 30.178654815260096 -14.794433216470754 0 0 0
7382 216 15 -0.83 31.290868487770926 26.125975538550897 -13.260995960683152 0 0 0
7383 216 16 0.415 31.281438804340944 26.68918867090137 -14.026678710240848 0 0 0
7384 216 16 0.415 31.26107208452205 26.677813994448826 -14.043765463317499 0 0 0
7568 278 15 -0.83 26.894120248642896 25.50242392394539 -15.598830978906632 0 0 0
7652 306 15 -0.83 31.370078448953233 31.369769595546902 -14.783615373485762 0 0 0
7653 306 16 0.415 30.921476921280235 31.487389042537202 -15.626066507759454 0 0 0
7654 306 16 0.415 30.931776248631085 31.49764451597618 -15.634995397506938 0 0 0
8102 456 15 -0.83 29.695866337188686 31.993403249238167 -11.653676828930093 0 0 0
7067 111 15 -0.83 25.567352833717543 27.34389298619956 -8.817687449475459 0 0 0
6874 46 16 0.415 28.225542479907457 28.061724839268333 -11.455995336563367 0 0 0
7199 155 15 -0.83 28.430491948450264 30.24264283291414 -6.929964977056207 0 0 0
7200 155 16 0.415 27.861199701632607 30.739550636572606 -7.523312794307471 0 0 0
7201 155 16 0.415 27.86930638698603 30.737736760354153 -7.540261712877875 0 0 0
7928 398 15 -0.83 26.430321794332006 30.904322953773473 -10.965492565424752 0 0 0
7929 398 16 0.415 25.857231791670074 31.60305265628321 -11.2966354883809 0 0 0
7930 398 16 0.415 25.867108012383206 31.616549951691663 -11.297435770251056 0 0 0
8057 441 15 -0.83 32.44475035446964 29.159306882355935 -8.44370924859348 0 0 0
8058 441 16 0.415 31.491416976530797 29.2441765700772 -8.450680537241109 0 0 0
7037 101 15 -0.83 17.645717718286686 15.669330844273611 -4.256772208734197 0 0 0
7039 101 16 0.415 18.10836704616464 15.0552890287425 -4.833105451272514 0 0 0
7898 388 15 -0.83 11.865859428722393 16.860892812170075 -4.323989748716417 0 0 0
7899 388 16 0.415 12.065092666792713 16.02887052876602 -3.8968435097030256 0 0 0
7038 101 16 0.415 18.117757932702077 15.077315385650936 -4.83788701018042 0 0 0
6908 58 15 -0.83 16.24685903139072 17.47220547175892 -1.1494956421827969 0 0 0
6910 58 16 0.415 15.593644028093047 17.59511001519709 -1.840603662067596 0 0 0
7253 173 15 -0.83 17.765687752458696 12.113283416439106 0.5273399867939096 0 0 0
7254 173 16 0.415 17.302768637675218 11.380453278416102 0.08990226591473707 0 0 0
7255 173 16 0.415 17.28974620356779 11.377100948178928 0.09996423319253828 0 0 0
7900 388 16 0.415 12.072095769210922 16.034982024403 -3.8748196533044803 0 0 0
6909 58 16 0.415 15.609684757097238 17.61051482403809 -1.8444979868745788 0 0 0
6893 53 15 -0.83 18.174375550171103 14.97445125323661 4.380740381952069 0 0 0
6895 53 16 0.415 17.77092553612177 14.093684914654483 4.367458976449891 0 0 0
7433 233 15 -0.83 11.459800486568824 17.40690768155714 5.382414043114054 0 0 0
7478 248 15 -0.83 14.614995431778517 16.685241245135526 6.221689007123386 0 0 0
7479 248 16 0.415 14.931563454845632 17.007420661494926 5.381314348070134 0 0 0
7480 248 16 0.415 14.93726319845611 16.98870631794221 5.369844827113032 0 0 0
8153 473 15 -0.83 14.074558635060026 12.952178574707096 4.69839504242846 0 0 0
8154 473 16 0.415 13.195339683097911 12.70928576430216 4.411825987969679 0 0 0
8155 473 16 0.415 13.198135026840431 12.702138222248001 4.389986708435589 0 0 0
6894 53 16 0.415 17.78252045950495 14.093410170757346 4.380964448165223 0 0 0
7436 234 15 -0.83 21.297506170834794 12.387124583576284 -5.626004937610789 0 0 0
8198 488 15 -0.83 22.205683590124114 17.293616721269363 -4.200748079830031 0 0 0
8199 488 16 0.415 22.29365434702058 18.098815561801914 -3.6893023242384766 0 0 0
6881 49 15 -0.83 19.959037486344545 14.896580563480166 -0.48716454806583814 0 0 0
6882 49 16 0.415 19.844880414727026 15.041543238879493 -1.4282208077267486 0 0 0
6883 49 16 0.415 19.847129474501923 15.021104178977946 -1.4373813147469667 0 0 0
7145 137 15 -0.83 24.143322748565236 14.679071615465132 -1.2503770049942697 0 0 0
7146 137 16 0.415 23.58330320682304 13.905675817754183 -1.3084386541853652 0 0 0
7147 137 16 0.415 23.58870162721061 13.893244147913082 -1.2898262783455374 0 0 0
7658 308 15 -0.83 21.1366509375222 14.16401846698357 2.566642119347505 0 0 0
7659 308 16 0.415 20.339066553238222 14.42946002603011 2.089592111892353 0 0 0
7660 308 16 0.415 20.333261661333154 14.416133523988606 2.083973354263614 0 0 0
7908 391 16 0.415 23.603138364821152 17.761346763519164 0.32415656348528177 0 0 0
7909 391 16 0.415 23.585481443813933 17.75105698282823 0.333614651151604 0 0 0
8200 488 16 0.415 22.314120352774953 18.097310989142812 -3.6798684891161866 0 0 0
7582 282 16 0.415 18.632562157867778 17.98581565121923 4.6527303563616105 0 0 0
6785 17 15 -0.83 24.834508002081044 12.69039113532281 4.000726927541371 0 0 0
6786 17 16 0.415 24.104750460696234 12.60244806910905 4.61050175725291 0 0 0
6787 17 16 0.415 24.112135512530223 12.610723529538596 4.628981468025151 0 0 0
7581 282 16 0.415 18.643775325827736 17.990414008394307 4.638471661856132 0 0 0
7589 285 15 -0.83 23.257945590477394 17.284357878241643 4.3414781920339625 0 0 0
7590 285 16 0.415 22.941251203400864 16.416907074220756 4.582869456278884 0 0 0
7591 285 16 0.415 22.94969552379788 16.402971930113186 4.566630099344971 0 0 0
6748 4 16 0.415 28.974044169370327 18.330299005489202 -4.4631973173785395 0 0 0
8195 487 15 -0.83 26.723957180313658 11.763698022016738 -4.455662956509407 0 0 0
8197 487 16 0.415 26.018817646352158 12.135693340372471 -3.925272857036118 0 0 0
6746 4 15 -0.83 28.90518810721351 17.597240700717816 -3.8434615149481837 0 0 0
7832 366 15 -0.83 27.42484342982105 17.933635301736743 0.3845176323455869 0 0 0
7833 366 16 0.415 27.843836965941104 17.159365486044916 0.7496642008355147 0 0 0
7834 366 16 0.415 27.829375876056925 17.15326918066748 0.7701974553076526 0 0 0
8078 448 15 -0.83 27.915536587453474 13.100252736877517 -0.4279333998490732 0 0 0
8079 448 16 0.415 27.477679407044914 13.929764181034834 -0.6092427331779117 0 0 0
8080 448 16 0.415 27.470589813832223 13.927762824983372 -0.6286254308255472 0 0 0
8196 487 16 0.415 26.024957570784526 12.111453526157028 -3.913846452163354 0 0 0
7973 413 15 -0.83 12.345575857670264 20.596508507334818 -5.531545836466822 0 0 0
7974 413 16 0.415 12.77657002287319 20.3483879008761 -4.701282708367203 0 0 0
7975 413 16 0.415 12.766389739949208 20.330487438385457 -4.695072518252533 0 0 0
7611 292 16 0.415 12.595632866585504 24.7941620502943 -3.4063045273230235 0 0 0
7610 292 15 -0.83 12.123723057626949 24.99231822617637 -4.227325025862699 0 0 0
7612 292 16 0.415 12.584581794789887 24.79857160327175 -3.3937930331188797 0 0 0
8024 430 15 -0.83 17.98721763893977 24.30855123505852 1.0287578172884058 0 0 0
8025 430 16 0.415 17.885863400600485 23.39636870947214 1.3149001871112762 0 0 0
8048 438 15 -0.83 14.074672194207036 22.76705917301152 0.500170880846999 0 0 0
8049 438 16 0.415 13.41945790842515 22.701084670305924 1.1929395391865727 0 0 0
8050 438 16 0.415 13.400137723041428 22.69613118643138 1.1820412523805446 0 0 0
8026 430 16 0.415 17.89578130419689 23.395358263758048 1.3314236520405682 0 0 0
7588 284 16 0.415 11.578367357483325 25.19361143494449 3.237879644890121 0 0 0
7400 222 15 -0.83 11.271461483708825 19.675362662123117 -0.12682907236669572 1 0 0
6758 8 15 -0.83 11.885200551567292 21.829502458455764 5.044948197386474 0 0 0
6759 8 16 0.415 12.81684843600823 21.713569224542148 5.222038313364632 0 0 0
6760 8 16 0.415 12.826930529919577 21.71537388186427 5.201342810969171 0 0 0
7580 282 15 -0.83 18.123272138069282 18.59909286987111 4.1101863598408 0 0 0
7587 284 16 0.415 11.570791719721392 25.19694370208278 3.260743112736737 0 0 0
7841 369 15 -0.83 22.435532072207575 22.260636496329784 -4.461054076392819 0 0 0
7842 369 16 0.415 21.844510239758893 21.582099961031208 -4.143803959153599 0 0 0
7843 369 16 0.415 21.852542100904802 21.576942582527142 -4.121888693478449 0 0 0
7907 391 15 -0.83 23.36703266025162 18.68874129055208 0.3222343085072779 0 0 0
7709 325 15 -0.83 32.0563740887944 23.58388328478446 -4.687949811094158 0 0 0
6747 4 16 0.415 28.984460697494654 18.336495866107764 -4.445786450563063 0 0 0
7283 183 15 -0.83 26.068343331086552 22.268645802844674 -3.2930931328578716 0 0 0
7284 183 16 0.415 26.21865891158064 22.993259186313974 -2.6861863213894623 0 0 0
7285 183 16 0.415 26.225383160617543 22.983538467520393 -2.6675308239797153 0 0 0
7977 414 16 0.415 32.21724764308664 22.41081588764069 1.5192693476237957 0 0 0
7978 414 16 0.415 32.23101641525456 22.41801983143206 1.5294994879135664 0 0 0
7754 340 15 -0.83 29.933296544813203 25.372881198112037 -3.05823844282216 0 0 0
7010 92 15 -0.83 25.845021705991027 22.06786836238048 5.339747498689564 0 0 0
7011 92 16 0.415 26.460984067767658 21.737456670451568 4.689984016529426 0 0 0
7012 92 16 0.415 26.45998273751045 21.752460943181344 4.67309428715802 0 0 0
8135 467 15 -0.83 30.476010451642633 23.29002640818156 3.938529704034733 0 0 0
8136 467 16 0.415 29.983959514718073 23.404173184235887 4.751843361914111 0 0 0
8137 467 16 0.415 29.998620716328443 23.406588986532277 4.766530192313287 0 0 0
7003 89 16 0.415 16.00987042160702 28.281172803781143 -3.8647201180606148 0 0 0
6791 19 15 -0.83 16.851972144012546 31.17533689236278 -2.590476981784217 0 0 0
6792 19 16 0.415 17.150816452375967 31.8974916351061 -2.0388756157789856 0 0 0
6793 19 16 0.415 17.139188935788454 31.895321624531622 -2.020108136269496 0 0 0
7001 89 15 -0.83 15.399663506359714 28.087942079128116 -3.1448412786687276 0 0 0
7002 89 16 0.415 16.018865368292687 28.267310856296124 -3.8536366226364063 0 0 0
7259 175 15 -0.83 18.03491647397236 31.030518048917568 2.8987388192413066 0 0 0
7261 175 16 0.415 18.27589152526568 31.923023697176962 2.6622676137885146 0 0 0
7301 189 15 -0.83 12.055886947611176 30.8052598377085 -4.062273141198761 0 0 0
7625 297 15 -0.83 16.229418274892797 28.68558697807412 1.3564614950825151 0 0 0
7626 297 16 0.415 16.88465718093375 28.231284743059508 0.8360940793357577 0 0 0
7627 297 16 0.415 16.876893493570968 28.236135095453857 0.8090144399175355 0 0 0
8225 497 15 -0.83 12.813177746215189 30.031327275839196 2.4299809465686693 0 0 0
8226 497 16 0.415 13.019437304072591 29.20280289659216 2.8769800252649955 0 0 0
8227 497 16 0.415 13.01122302130953 29.203975988380613 2.8923972634057455 0 0 0
7260 175 16 0.415 18.27973250856159 31.92088109091482 2.69217289235197 0 0 0
6992 86 15 -0.83 15.910565794520283 29.578900028782737 5.284268123387801 0 0 0
6993 86 16 0.415 15.913108397672325 29.70711913890746 6.226899471641229 0 0 0
6994 86 16 0.415 15.928062714927563 29.690367136644106 6.235180375323074 0 0 0
7586 284 15 -0.83 11.836250290181535 26.090330282311843 3.472717866574747 0 0 0
7739 335 15 -0.83 21.050778131099275 29.593672680057747 -5.024181122710245 0 0 0
7740 335 16 0.415 20.239379159132486 29.768203701533505 -4.540947292101808 0 0 0
7741 335 16 0.415 20.23339391907449 29.784882489272487 -4.547602436925171 0 0 0
7706 324 15 -0.83 19.8786854870602 26.64755525479852 -1.3285139729399242 0 0 0
7707 324 16 0.415 19.440134963334145 26.588180551596402 -0.478412457422375 0 0 0
7708 324 16 0.415 19.454696697950634 26.58406852658135 -0.4655898443995513 0 0 0
7871 379 15 -0.83 20.733049627142062 29.506101098951376 1.6893216065938734 0 0 0
7872 379 16 0.415 21.013355069539998 29.31312466179108 2.593240791979513 0 0 0
7873 379 16 0.415 21.000801491824944 29.302738207085397 2.5995960563501175 0 0 0
7982 416 15 -0.83 23.949589267247855 29.039195066724123 0.2162483817197248 0 0 0
7983 416 16 0.415 23.87003656776166 28.834243694008254 -0.714897146360107 0 0 0
7984 416 16 0.415 23.854823719838343 28.84598338624845 -0.7213990604664874 0 0 0
8126 464 15 -0.83 20.39055212229491 31.367711005515872 -1.801010093845147 0 0 0
8127 464 16 0.415 20.542288179476856 31.090079054878522 -0.8935120054664482 0 0 0
8128 464 16 0.415 20.549596245375668 31.10524504205938 -0.8851047773475939 0 0 0
7743 336 16 0.415 24.055834847803567 28.59847007287461 3.560470945228997 0 0 0
7742 336 15 -0.83 23.377640955189072 28.13402262515288 4.056514949547649 0 0 0
7744 336 16 0.415 24.059918633585596 28.615400340873023 3.5718330232324194 0 0 0
8069 445 15 -0.83 26.143564185642308 26.441174142400353 -3.909839582263057 0 0 0