LAMMPS data file via write_data, version 29 Oct 2020, timestep = 34

12785 atoms
16 atom types
11210 bonds
19 bond types
13143 angles
24 angle types
19507 dihedrals
42 dihedral types

11.246593 53.753407 xlo xhi
11.246593 53.753407 ylo yhi
-18.83 84.853 zlo zhi

Masses

1 12.01
2 1.008
3 12.01
4 16
5 14.01
6 1.008
7 16
8 14.01
9 1.008
10 12.01
11 14.01
12 12.01
13 1.008
14 16
15 15.9994
16 1.008

Pair Coeffs # lj/cut/coul/long/omp

1 0.086 3.39967
2 0.015 2.59964
3 0.086 3.39967
4 0.21 2.95992
5 0.17 3.25
6 0.0157 1.06908
7 0.2104 3.06647
8 0.17 3.25
9 0 0
10 0.086 3.39967
11 0.17 3.25
12 0.086 3.39967
13 0.0157 1.06908
14 0.2104 3.06647
15 0.102 3.188
16 0 0

Atoms # full

6906 42 15 -0.83 15.190212099411076 11.952542678941661 -14.786989819519722 0 0 0
6907 42 16 0.415 15.470941328071772 12.541788945457487 -15.695452903163625 0 0 0
6908 42 16 0.415 15.387460712436162 12.329364469151677 -13.814981431902586 0 0 0
7570 263 16 0.415 13.839158902778687 11.752595872239521 -18.45866100526689 0 0 0
7571 263 16 0.415 12.700334856403881 11.319994590520388 -17.007208502036487 0 0 0
7998 406 15 -0.83 12.339822446167345 11.633817487632953 -12.461517087812249 0 0 0
8045 421 16 0.415 17.770202969269437 13.12607768142936 -18.001446116434977 0 0 0
8264 494 16 0.415 14.205465777326191 18.249766675685464 -12.229675853305366 0 0 0
8346 522 15 -0.83 12.315606430051448 14.824502791442926 -17.824759834502284 0 0 0
8348 522 16 0.415 12.893738467417267 14.904952788678933 -18.753505996321675 0 0 0
8378 532 16 0.415 18.26443307821375 18.09986690260275 -17.483796100896072 0 0 0
8411 543 16 0.415 11.274458887330029 15.665141817146536 -14.300312986847533 1 0 0
8706 642 15 -0.83 14.239575921446356 17.977173036199737 -18.766433894849136 0 0 0
8769 663 15 -0.83 16.841000887118643 11.290092206364966 -15.248385533297665 0 1 0
8827 682 16 0.415 17.165629095791882 16.7996905683992 -12.037049466048412 0 0 0
8905 708 16 0.415 11.257930540231587 11.265902873169773 -13.698247659858655 1 1 0
9387 869 15 -0.83 11.92445306530876 17.35105110681652 -15.736054514437287 0 0 0
9388 869 16 0.415 12.698694857803023 17.835204884618214 -15.141483773121621 0 0 0
9437 885 16 0.415 14.351670335596449 11.261407076070135 -17.486983076517177 0 1 0
9654 958 15 -0.83 15.543783914195492 16.208942730087887 -16.25908458602917 0 0 0
9655 958 16 0.415 15.686512586702792 15.526306425065522 -17.09831518644076 0 0 0
9656 958 16 0.415 15.306702910018254 15.808880670697425 -15.264480743118074 0 0 0
9705 975 15 -0.83 12.821642087276688 14.762581265515772 -13.813598019656101 0 0 0
9706 975 16 0.415 12.57782314200816 14.082250510001254 -14.589367974927564 0 0 0
9707 975 16 0.415 13.247169268763296 14.708698211699863 -12.92703689631075 0 0 0
9755 991 16 0.415 16.11665998586693 11.249230534290414 -11.507973670347477 0 1 0
8347 522 16 0.415 11.250589888054947 14.529115893786697 -17.888608689488652 0 0 0
7569 263 15 -0.83 12.8711808339685 11.263593709597558 -18.045919038836164 0 0 0
6931 50 16 0.415 21.987211736149632 11.257847466410908 -17.037994655848884 0 1 0
6932 50 16 0.415 21.284642809896685 11.289001330330942 -18.749306324837388 0 1 0
7161 127 15 -0.83 18.639524833823604 15.374307450399375 -14.62741331228719 0 0 0
7162 127 16 0.415 18.369336338046576 14.481058612998659 -14.063048369575137 0 0 0
7163 127 16 0.415 18.68014503604405 15.33468616875388 -15.725456596670288 0 0 0
7284 168 15 -0.83 18.66990954380446 11.348797893500024 -15.355009177242296 0 0 0
7785 335 15 -0.83 24.529647642979278 16.268758405497078 -13.711492213781217 0 0 0
7786 335 16 0.415 25.16076078143988 15.513095897364433 -14.181982996709918 0 0 0
7787 335 16 0.415 24.130499423978254 16.096133047477167 -12.703358359121733 0 0 0
7876 365 16 0.415 20.4132009113951 15.817846528162853 -11.838127886885017 0 0 0
8043 421 15 -0.83 18.52841217009864 13.250404899598378 -18.790401924267137 0 0 0
8044 421 16 0.415 19.31736406063258 13.989786371605405 -18.671916236518964 0 0 0
8376 532 15 -0.83 18.512529666755622 17.403067609032068 -18.296817812169035 0 0 0
8377 532 16 0.415 19.503157676443855 17.437971214437667 -18.75524617365238 0 0 0
8822 680 16 0.415 24.796042133262933 12.904746873878524 -12.197992718749987 0 0 0
8823 681 15 -0.83 23.54277299168106 15.968876096534585 -18.756085963002775 0 0 0
8824 681 16 0.415 24.236594978814637 15.132805026107613 -18.680401687259746 0 0 0
8825 681 16 0.415 22.458402650310706 15.781083085163885 -18.762380231017033 0 0 0
9123 781 15 -0.83 21.62717456571838 17.555231647580463 -16.104254729217075 0 0 0
9124 781 16 0.415 22.70838624573228 17.698393331324638 -16.066586716485467 0 0 0
9125 781 16 0.415 21.040366122278606 17.580353894607857 -15.176938279229473 0 0 0
9248 822 16 0.415 22.813986552635598 12.164776181777231 -18.801476778237475 0 0 0
9376 865 16 0.415 23.80740358660818 11.465776963529699 -15.726973391586034 0 0 0
9525 915 15 -0.83 22.21519714136419 14.345304866075365 -15.511083128329656 0 0 0
9526 915 16 0.415 21.5779464639789 13.842028086891006 -16.239765516731914 0 0 0
9527 915 16 0.415 21.869904208175225 14.465598559245915 -14.475220754395078 0 0 0
9634 951 16 0.415 19.76819215470698 11.254320051217784 -13.68756693970197 0 1 0
9246 822 15 -0.83 22.48507368392637 11.411254439054346 -18.733206275616492 0 0 0
7073 97 16 0.415 27.185554626326976 15.677650168419095 -11.535797511780077 0 0 0
7086 102 15 -0.83 26.246123966880944 12.703378910995474 -17.538962378963255 0 0 0
7087 102 16 0.415 26.54098153091274 11.656576964335994 -17.60902485589353 0 0 0
7088 102 16 0.415 26.32005791460443 13.341928597507616 -16.76884924466521 0 0 0
7529 249 16 0.415 29.69198396570921 11.249468734813698 -15.755242107735333 0 1 0
7692 304 15 -0.83 29.645663436882998 15.628336797642223 -15.3080770379998 0 0 0
7693 304 16 0.415 28.664001202821556 15.281394925039233 -14.983207864271142 0 0 0
7694 304 16 0.415 30.05353809848711 16.567181979076675 -14.905671412057961 0 0 0
7995 405 15 -0.83 29.191827808952635 17.737536300265052 -18.473190589057666 0 0 0
7996 405 16 0.415 30.17899002591709 17.765181930762154 -18.01014576267087 0 0 0
8126 448 16 0.415 32.378768718431886 17.21369886013849 -11.681067746059421 0 0 0
8344 521 16 0.415 25.603294250839777 11.262615760311883 -14.05387629318757 0 1 0
8345 521 16 0.415 26.312973639732817 11.286109644423474 -15.810590371462547 0 1 0
8370 530 15 -0.83 26.427979118760927 18.053113307052993 -16.43284160042917 0 0 0
8371 530 16 0.415 26.218567660801234 17.084077976523222 -16.889355631425758 0 0 0
8372 530 16 0.415 27.315574219554986 18.177903806383465 -15.797802569678792 0 0 0
8412 544 15 -0.83 29.15950839124359 11.775352337619424 -13.888921098982266 0 0 0
8414 544 16 0.415 29.249900661838666 11.897661320211173 -15.12114122965487 0 0 0
8820 680 15 -0.83 25.871691187873125 12.766599784846749 -12.376414690739916 0 0 0
8821 680 16 0.415 26.226453693989118 12.495916827137018 -13.371672224077052 0 0 0
8869 696 16 0.415 32.354580144664496 12.949106584372688 -15.655828593156658 0 0 0
8988 736 15 -0.83 30.787856073243404 11.252673200166695 -18.012004411257248 0 0 0
8990 736 16 0.415 31.581036743812753 11.347287586956243 -18.766873667058743 0 0 0
9339 853 15 -0.83 30.395699466193882 14.642816442081974 -12.250860053811259 0 0 0
9340 853 16 0.415 31.297184953944715 14.290508362773163 -12.75567758232742 0 0 0
9765 995 15 -0.83 30.334560420891915 14.262028284470773 -18.75497328414334 0 0 0
9766 995 16 0.415 30.910350366551786 14.548235549783334 -18.15322404713484 0 0 0
9767 995 16 0.415 29.0268139196729 14.447419235323249 -18.323265343249496 0 0 0
8413 544 16 0.415 30.271040340638947 11.249290764747265 -13.673363949887298 0 0 0
6804 8 15 -0.83 39.185555902141104 12.237438498187979 -18.151551741146733 0 0 0
6806 8 16 0.415 38.32044361247273 11.793454303291863 -18.511038073158073 0 0 0
6855 25 15 -0.83 37.57243118170247 17.751878391175904 -16.096870928679106 0 0 0
6857 25 16 0.415 37.192876412051504 17.64997617132978 -17.124055884881667 0 0 0
7080 100 15 -0.83 34.174674723853826 14.379359152984703 -18.584597199541243 0 0 0
7081 100 16 0.415 34.3272299049201 13.351278828366366 -18.709005223260192 0 0 0
7082 100 16 0.415 35.01714552861392 15.112916555328676 -18.78249870085205 0 0 0
7224 148 15 -0.83 33.62370738031876 17.748431543357583 -17.36438110306759 0 0 0
7225 148 16 0.415 34.130134304031166 18.244373965562158 -18.20156559427112 0 0 0
7226 148 16 0.415 33.76323415757249 18.130913717019975 -16.346342312572258 0 0 0
7635 285 15 -0.83 35.821968125062355 15.121294913851559 -11.894034588866882 0 0 0
7636 285 16 0.415 35.12020432857711 14.368492833834871 -12.25638375658889 0 0 0
7637 285 16 0.415 36.86967962219132 15.096068289845226 -12.224496563964463 0 0 0
7854 358 15 -0.83 36.20435244369795 11.885637326154733 -14.69687048563536 0 0 0
7856 358 16 0.415 37.19047768135315 11.968519053364469 -13.931321977561177 0 0 0
7892 370 16 0.415 36.59726198699024 11.287934832583687 -18.765932775005997 0 1 0
8124 448 15 -0.83 33.09288515088795 17.523264518310285 -12.456176718138275 0 0 0
8125 448 16 0.415 33.26521976843264 16.882160637132543 -13.321643135034707 0 0 0
8432 550 16 0.415 39.05056162302586 15.465359873993146 -18.757230347383793 0 0 0
8858 692 16 0.415 39.53732617807326 15.005233304747394 -14.170162438523041 0 0 0
8868 696 15 -0.83 32.839971691781344 12.256576698735195 -15.222663830086312 0 0 0
8870 696 16 0.415 33.50386239624781 11.494149797777748 -16.078593371581206 0 0 0
9270 830 15 -0.83 33.25090354993426 11.73035013985757 -11.997750335314418 0 0 0
9342 854 15 -0.83 36.33261300896658 14.759399954784204 -15.462544881452365 0 0 0
9343 854 16 0.415 37.03054136460694 14.47096426216386 -16.249370162845345 0 0 0
9344 854 16 0.415 35.26893651974795 14.497643136601463 -15.55295318876129 0 0 0
6852 24 15 -0.83 42.881688237053616 17.25869273330864 -16.365714286757562 0 0 0
6853 24 16 0.415 43.03287759323084 17.194164893222073 -17.44609447945219 0 0 0
6854 24 16 0.415 41.880259835631286 17.090272092675637 -15.946144045075789 0 0 0
7347 189 15 -0.83 42.64580501951465 14.118689550543692 -18.581893876069735 0 0 0
7348 189 16 0.415 43.6575154685823 13.753537823784612 -18.765773510966987 0 0 0
7349 189 16 0.415 42.09783545080165 13.781005287525579 -17.69205725734807 0 0 0
7489 236 16 0.415 44.90832183023468 11.289327029179306 -12.751588475938433 0 1 0
7490 236 16 0.415 43.69938805205804 11.267754264225182 -14.211125980984201 0 1 0
7567 262 16 0.415 44.79632150382635 11.256083736802967 -18.739767467471026 0 1 0
7568 262 16 0.415 42.90162178901758 11.259446223525362 -18.76149382878125 0 1 0
7809 343 15 -0.83 44.55421772231428 14.912555043929137 -14.756090122128027 0 0 0
7810 343 16 0.415 43.565162585824915 14.763871555113882 -14.320057997048016 0 0 0
7811 343 16 0.415 44.77661027021269 14.50959951881029 -15.75373940370254 0 0 0
7949 389 16 0.415 40.8055059745481 11.248729024783515 -12.359880151178796 0 1 0
8397 539 15 -0.83 43.44514954737598 11.491196309628773 -15.691411432057862 0 0 0
8406 542 15 -0.83 42.77638844921049 16.65594281201095 -11.728256031261903 0 0 0
8407 542 16 0.415 43.67789593958916 17.173144957307656 -12.063708507456505 0 0 0
8430 550 15 -0.83 39.841710979826736 16.10358376290855 -18.34345573561386 0 0 0
8431 550 16 0.415 40.002666309282176 17.10208824173555 -18.75759434574168 0 0 0
8699 639 16 0.415 45.46334208851004 14.364516529067638 -11.628920933097282 0 0 0
8856 692 15 -0.83 40.167526366775206 14.44089905169556 -14.871840359955623 0 0 0
8857 692 16 0.415 39.933131839291526 13.399814650032706 -15.094024001541078 0 0 0
9172 797 16 0.415 39.6347077834043 17.81347231514657 -11.617815805499056 0 0 0
9173 797 16 0.415 39.99373889064971 18.193826590838412 -13.437887018768588 0 0 0
9419 879 16 0.415 39.992758143046984 11.246604230423161 -17.1932213457751 0 1 0
9535 918 16 0.415 46.14287074706808 12.021630945581286 -13.864553227752399 0 0 0
9600 940 15 -0.83 42.67272189187298 11.444202579692575 -11.86480290467604 0 0 0
9602 940 16 0.415 42.37810823156351 12.350552997415207 -12.399662581098676 0 0 0
6805 8 16 0.415 39.97834763405818 11.249300703269462 -17.787820910374197 0 0 0
8409 543 15 -0.83 53.47024215660325 14.928732189928816 -13.458766753293684 0 0 0
6819 13 15 -0.83 47.781783716344094 12.045405246089032 -18.743958634205814 0 0 0
6820 13 16 0.415 46.718440082169394 12.278269694430664 -18.511468736455317 0 0 0
6821 13 16 0.415 48.56823568270897 12.07989942340606 -18.144069938124403 0 0 0
7064 94 16 0.415 50.66336057185881 18.101693516004385 -18.760023320751095 0 0 0
7293 171 15 -0.83 47.91426436425632 15.10759276993994 -13.7144400311701 0 0 0
7294 171 16 0.415 48.472627802365416 14.32732529253225 -14.23506076479275 0 0 0
7295 171 16 0.415 47.634116982445725 16.026022143282102 -14.248428495633721 0 0 0
7467 229 15 -0.83 47.95394208058577 15.762170625132017 -18.354071754371773 0 0 0
7468 229 16 0.415 48.83049480162219 15.299927597094372 -18.806393556429228 0 0 0
7469 229 16 0.415 47.49041316786079 15.310667891266773 -17.468109728971285 0 0 0
7740 320 15 -0.83 51.15275924966102 11.566449998282584 -15.535798322902115 0 0 0
8255 491 16 0.415 52.12732214405567 11.249029823499944 -18.704786650441783 0 1 0
8410 543 16 0.415 53.74790587355286 15.200890956018375 -12.465000070223455 0 0 0
8667 629 15 -0.83 52.05425026211053 18.14846417277317 -12.744302265702355 0 0 0
8904 708 15 -0.83 53.333845546822346 11.248326407946852 -14.697217849431183 0 1 0
8938 719 16 0.415 50.57512223612452 11.247724672749522 -12.851870242611708 0 1 0
9098 772 16 0.415 48.6827010635011 11.25716742236584 -18.690963194080695 0 1 0
9389 869 16 0.415 53.732459568149274 17.962603306285796 -16.33197086297288 -1 0 0
9390 870 15 -0.83 51.873894231705044 12.516791804995608 -12.346595758198081 0 0 0
9391 870 16 0.415 51.093843589693506 13.240314467802692 -12.530376963039535 0 0 0
9492 904 15 -0.83 52.996879067857265 15.30801075840923 -18.663995992065438 0 0 0
9493 904 16 0.415 53.25568759878483 14.316175834448186 -18.72150684985445 0 0 0
9494 904 16 0.415 53.752235141632184 16.05241510320048 -18.145417145472308 0 0 0
9534 918 15 -0.83 46.85973426070178 11.32295036424489 -14.292250664801081 0 0 0
9678 966 15 -0.83 50.72219309705556 15.843026322898039 -16.15776581093897 0 0 0
9679 966 16 0.415 50.73637160371282 16.484143321692144 -15.27481817533512 0 0 0
9680 966 16 0.415 51.14648624378618 14.831713603349328 -16.104375845102687 0 0 0
6789 3 15 -0.83 14.532851155302703 24.879211774783787 -18.744868270238534 0 0 0
6790 3 16 0.415 15.326216835547525 25.119968720194635 -18.037446662541186 0 0 0
6791 3 16 0.415 13.994381105228952 23.93067879571646 -18.668392356479774 0 0 0
7650 290 15 -0.83 14.465903711309288 21.718686686957433 -16.209149033303774 0 0 0
7651 290 16 0.415 14.489764423046724 20.651491821978993 -16.43491372135779 0 0 0
7652 290 16 0.415 15.408271075529518 22.276716088483813 -16.11388085211373 0 0 0
7724 314 16 0.415 11.346568429736667 20.795281947082653 -13.258915928256597 0 0 0
7730 316 16 0.415 11.258109609438364 25.215458755885955 -11.449968979702225 1 0 0
8262 494 15 -0.83 14.844681835297987 19.108063531884618 -12.47567232688389 0 0 0
8263 494 16 0.415 14.525812985400117 19.82223002755338 -13.235768685184638 0 0 0
8537 585 16 0.415 11.260264885577815 18.53267718035352 -15.946236042873707 1 0 0
8707 642 16 0.415 15.232125615208382 18.4318618418217 -18.764785587107006 0 0 0
8708 642 16 0.415 13.347603749812034 18.618096228782505 -18.77624617869534 0 0 0
8894 704 16 0.415 14.395898393189816 25.123589315433136 -14.769992220811048 0 0 0
9046 755 16 0.415 12.42935962618565 25.307860846040537 -12.1288420069118 0 0 0
9085 768 16 0.415 11.40576324463371 21.87548728193152 -18.752112521826927 0 0 0
9086 768 16 0.415 11.280515126593732 21.20216224634666 -16.98536734683007 0 0 0
9130 783 16 0.415 17.57755069435274 19.131506138342097 -14.359726396589432 0 0 0
9229 816 16 0.415 11.417987833319653 23.704117670178608 -14.839072392758405 0 0 0
9230 816 16 0.415 11.497294490519396 24.46348177717735 -16.57336895907547 0 0 0
9321 847 15 -0.83 16.672399992261376 22.42894201133712 -12.992142644394331 0 0 0
9322 847 16 0.415 15.706998972209549 22.86938816477012 -12.73824597882648 0 0 0
9323 847 16 0.415 17.533508212347172 22.57887666557255 -12.326685239153681 0 0 0
9448 889 16 0.415 18.08893908984015 21.40271672415606 -17.825600926083514 0 0 0
7722 314 15 -0.83 11.24957064844363 19.760193164897508 -12.892313037847813 0 0 0
6945 55 15 -0.83 24.938549119447515 19.84700722572844 -18.77712281902157 0 0 0
6946 55 16 0.415 24.043965531032402 19.236914406674412 -18.69191922466995 0 0 0
6947 55 16 0.415 25.149950798567964 20.63256326259116 -18.046684492095782 0 0 0
7116 112 15 -0.83 22.384197987884274 21.066366312512397 -16.29992652903654 0 0 0
7117 112 16 0.415 21.670309759629834 20.80419779419062 -15.517503215688778 0 0 0
7118 112 16 0.415 22.020341409808154 21.423367182746052 -17.27268575259272 0 0 0
7521 247 15 -0.83 21.163364799174683 25.380030277000344 -14.74968624614463 0 0 0
7522 247 16 0.415 20.431148546685346 24.768800651707686 -15.278666956984496 0 0 0
7524 248 15 -0.83 23.83901294252531 24.118104338577083 -16.20988819619923 0 0 0
7525 248 16 0.415 23.98677664438555 23.730282601521225 -15.199046747032018 0 0 0
7526 248 16 0.415 24.408361095002135 23.691468252390752 -17.046182750269384 0 0 0
7944 388 15 -0.83 21.879415138110595 22.717072360137283 -12.83376647083871 0 0 0
7945 388 16 0.415 20.800724098705498 22.558562612687844 -12.855138546464088 0 0 0
7946 388 16 0.415 22.4168097814408 22.686337685587254 -11.876089371340173 0 0 0
8190 470 15 -0.83 22.988773532422098 19.440919097743137 -12.060653496840313 0 0 0
8191 470 16 0.415 22.190269542725257 18.73742029168696 -12.302157294830298 0 0 0
9129 783 15 -0.83 18.356225980981794 19.733384960359043 -13.887365184202562 0 0 0
9131 783 16 0.415 19.038291521125757 19.271135448819443 -13.162839779943571 0 0 0
9225 815 15 -0.83 19.415567389078014 24.59374460354635 -18.76728229061237 0 0 0
9226 815 16 0.415 20.174403469148412 23.85086625225192 -18.553794628820288 0 0 0
9227 815 16 0.415 18.61982782799156 24.804052798031638 -18.04289198805426 0 0 0
9447 889 15 -0.83 18.73869653579916 21.321815172692084 -16.952360854046148 0 0 0
9449 889 16 0.415 18.7022137706038 22.09243453714809 -16.170929826804162 0 0 0
7122 114 15 -0.83 32.18135436241227 20.904422560137707 -18.256431767394588 0 0 0
7124 114 16 0.415 31.20836104675916 20.810801054504168 -18.75765270697934 0 0 0
7335 185 15 -0.83 25.76595562280201 20.97560673951584 -14.82035860095749 0 0 0
7336 185 16 0.415 25.52683768881374 20.292292848087744 -14.003313439161753 0 0 0
7337 185 16 0.415 26.79419040900891 21.341308986623805 -14.942448357241608 0 0 0
7506 242 15 -0.83 26.11724968494991 22.269694042014603 -11.42691838797234 0 0 0
7764 328 15 -0.83 27.913243613485374 25.38354667615723 -15.483579172492638 0 0 0
7765 328 16 0.415 27.16815675187737 24.58612758025017 -15.4675416645691 0 0 0
7997 405 16 0.415 28.69166053628081 18.672562140316675 -18.753972531434673 0 0 0
8152 457 16 0.415 32.07436817327466 24.455546033346113 -18.768764114686864 0 0 0
8574 598 15 -0.83 31.402278003905565 19.548073304694043 -14.438531724304998 0 0 0
8575 598 16 0.415 32.11148304065463 20.276063147317238 -14.040754917865511 0 0 0
8576 598 16 0.415 30.9661707973817 19.698909330083904 -15.434898383260899 0 0 0
9243 821 15 -0.83 27.963430654505203 22.620781260056606 -17.90965540683271 0 0 0
9244 821 16 0.415 27.23704696444095 23.60980235272038 -18.750373870915116 0 0 0
9245 821 16 0.415 28.10031145868056 21.935596735768545 -18.755311312258545 0 0 0
9264 828 15 -0.83 31.14412341818318 23.174290464206393 -15.582757903853247 0 0 0
9265 828 16 0.415 31.41362362810961 24.231081966367118 -15.543881914359801 0 0 0
9266 828 16 0.415 30.37026652842582 22.833634711815442 -16.283312102525628 0 0 0
9429 883 15 -0.83 29.18280039794127 18.480297429029616 -11.873529909813671 0 0 0
9431 883 16 0.415 28.47884917045499 18.473416381642163 -12.71667210546171 0 0 0
9591 937 15 -0.83 29.69207464487721 22.67609691106339 -12.662298539361514 0 0 0
9592 937 16 0.415 29.10880180490787 23.53030939660326 -13.01093697196636 0 0 0
9593 937 16 0.415 29.348167465192276 21.655544675970276 -12.877630384116605 0 0 0
6856 25 16 0.415 37.561028393163696 18.727202288719567 -15.609222418816309 0 0 0
7123 114 16 0.415 33.038151416520996 21.299076042789512 -18.807496244502403 0 0 0
7329 183 15 -0.83 38.81634864003962 21.26058962218799 -13.843545712413738 0 0 0
7330 183 16 0.415 38.1164702885769 22.069679076710365 -14.053606290283568 0 0 0
7464 228 15 -0.83 36.190801030617806 25.168712670886425 -15.572456610090072 0 0 0
7466 228 16 0.415 36.99041128705962 25.08416153160062 -14.824449760850676 0 0 0
8105 441 16 0.415 39.544128693047256 20.22827499102282 -17.77618962197264 0 0 0
8151 457 15 -0.83 32.90529619912612 25.171514703061888 -18.748569270777637 0 0 0
8153 457 16 0.415 33.820241593778874 24.9122969383092 -18.193512948480706 0 0 0
8205 475 15 -0.83 34.100738788173345 23.929569428106312 -12.889059674402475 0 0 0
8206 475 16 0.415 33.128923535475096 23.435622881894435 -12.832920841786926 0 0 0
8207 475 16 0.415 35.020240134299186 23.336793886950606 -12.795921797217517 0 0 0
8517 579 15 -0.83 36.24050729386465 18.39502700375359 -11.982875582438123 0 0 0
8518 579 16 0.415 36.50254113645214 19.30441614211306 -12.526351810693475 0 0 0
8621 613 16 0.415 37.96159560599639 24.415896328089453 -11.734278590722406 0 0 0
8889 703 15 -0.83 38.1223131501174 24.9294651255469 -18.367613915602664 0 0 0
8891 703 16 0.415 38.8118800939422 25.075394912283297 -17.575062787286793 0 0 0
9522 914 15 -0.83 36.625926457499055 21.71753800858555 -18.39120087163671 0 0 0
9523 914 16 0.415 36.28601022160437 20.692054810495325 -18.753620593501953 0 0 0
9524 914 16 0.415 36.086065339496535 22.57423633188974 -18.756408678707356 0 0 0
9687 969 15 -0.83 34.63005747228707 21.389243229087107 -15.91764978510448 0 0 0
9688 969 16 0.415 34.34982892057443 22.443893949929784 -15.897627594171555 0 0 0
9689 969 16 0.415 35.17609888028521 20.953855854094485 -15.070682762282221 0 0 0
6951 57 15 -0.83 44.77093524560172 23.323122616409265 -14.296426804353338 0 0 0
6952 57 16 0.415 45.62684099930844 22.780750170243497 -13.893894891626177 0 0 0
6953 57 16 0.415 44.77534810102513 24.421195402932465 -14.303671456586825 0 0 0
7331 183 16 0.415 39.88000605233163 21.486677132410538 -13.682012571182092 0 0 0
7387 202 16 0.415 42.58369323657918 22.026201918003036 -11.854351087571278 0 0 0
7572 264 15 -0.83 46.390343673335124 23.463520635280535 -18.274837329165276 0 0 0
7573 264 16 0.415 45.68256594418067 22.783689268586837 -18.75198570968941 0 0 0
7574 264 16 0.415 46.19654521266722 23.82901615106628 -17.257165050149936 0 0 0
8103 441 15 -0.83 39.877666579638635 20.859572124523257 -16.941575776620454 0 0 0
8104 441 16 0.415 39.67705679131084 21.93205897080021 -16.95833542875877 0 0 0
8586 602 15 -0.83 41.450417947744576 24.374079907751344 -14.163170096134195 0 0 0
8587 602 16 0.415 40.63457164836489 24.46471033207158 -14.880745975661764 0 0 0
8588 602 16 0.415 41.33894666801984 24.792351653074917 -13.154076293491405 0 0 0
8682 634 15 -0.83 43.087484085266446 20.466261083914876 -15.199991728558436 0 0 0
8683 634 16 0.415 44.12281327059255 20.325997610374767 -15.514231104310458 0 0 0
8684 634 16 0.415 42.68566354346122 19.875725769295823 -14.365753831117905 0 0 0
9171 797 15 -0.83 40.08458250869709 18.456814047126667 -12.375354286698858 0 0 0
9282 834 15 -0.83 42.69948497079568 20.546464806161552 -18.734552919239526 0 0 0
9283 834 16 0.415 43.697207351818854 20.141379116700627 -18.784973257758082 0 0 0
9284 834 16 0.415 42.52417869432854 21.63052475616306 -18.759305262960233 0 0 0
9477 899 15 -0.83 42.83908884761226 24.953787398873473 -18.1929598507 0 0 0
9478 899 16 0.415 43.63384089591423 25.40862423629072 -18.75339972008793 0 0 0
9479 899 16 0.415 42.97237945196738 24.515691097374336 -17.21813630101005 0 0 0
9559 926 16 0.415 46.52617869140385 18.69522755900258 -17.8449405712529 0 0 0
7038 86 15 -0.83 48.861313732244355 22.30894780387928 -16.034076758660117 0 0 0
7039 86 16 0.415 49.43955334824262 21.38383773535105 -16.025734926163892 0 0 0
7040 86 16 0.415 48.702953556975345 22.8642096379025 -15.100175600467354 0 0 0
7062 94 15 -0.83 50.24567983064959 19.06737689972158 -18.752070329865035 0 0 0
7063 94 16 0.415 50.85813571322589 19.98723427170145 -18.758786053326173 0 0 0
7723 314 16 0.415 53.71887042316834 19.57546232480455 -11.817676374783547 -1 0 0
7728 316 15 -0.83 53.59498252604745 24.847328753629714 -12.472672095481261 0 0 0
7729 316 16 0.415 52.66590170970704 25.0940141481353 -12.987830359034897 0 0 0
8226 482 15 -0.83 47.25659020094068 24.636338487967446 -11.479952839268028 0 0 0
8228 482 16 0.415 48.0806220028602 24.358239525334746 -12.149844413838167 0 0 0
8535 585 15 -0.83 52.78826221330807 18.83717105918595 -16.35060036416952 0 0 0
8536 585 16 0.415 52.14261870678899 19.48697931293316 -15.76049634155234 0 0 0
8601 607 15 -0.83 52.787596154184946 21.73696603719214 -13.190431692004568 0 0 0
8602 607 16 0.415 51.80795853297043 21.965893254353812 -13.604009957733764 0 0 0
8603 607 16 0.415 53.667129599943486 21.70273548782609 -13.849514803190813 0 0 0
8668 629 16 0.415 51.25576748681618 18.87458857318388 -12.587644936768443 0 0 0
8669 629 16 0.415 53.103905634734424 18.482448710400043 -12.718301285251258 0 0 0
9084 768 15 -0.83 53.72922005020826 21.0359588103157 -18.064387130279908 -1 0 0
9228 816 15 -0.83 53.73572584927417 24.54178907580963 -15.510574737669144 -1 0 0
9231 817 15 -0.83 47.82369975636373 19.935648801008767 -13.5413916931813 0 0 0
9232 817 16 0.415 48.14835120465616 20.61386099134742 -12.750974611557327 0 0 0
9233 817 16 0.415 46.76096035101664 19.673437934617905 -13.633639794686106 0 0 0
9366 862 15 -0.83 53.10226658132814 23.363995726196475 -18.105194378025754 0 0 0
9367 862 16 0.415 53.24983476117215 23.369014598338392 -17.037204326618372 0 0 0
9368 862 16 0.415 52.126666161549096 23.034022281910396 -18.52586164668537 0 0 0
9558 926 15 -0.83 47.29658389094112 19.137528282969214 -17.212695677340424 0 0 0
9560 926 16 0.415 47.86380260412569 18.50307828271149 -16.5182501780469 0 0 0
9624 948 15 -0.83 50.52581724751294 25.174659875682256 -16.594836073098712 0 0 0
9625 948 16 0.415 49.69035901430052 25.244713461166377 -17.293994460968367 0 0 0
6969 63 15 -0.83 11.768011212362687 30.07703127688596 -18.771153617341785 0 0 0
7381 200 16 0.415 17.909968266478828 32.055071711896574 -18.76646617719354 0 0 0
7407 209 15 -0.83 15.697778227277512 30.067071078642726 -13.405873792429905 0 0 0
7408 209 16 0.415 16.550974274953116 30.74060169562885 -13.498256170740946 0 0 0
7409 209 16 0.415 15.67636474693309 29.32031932622447 -12.599857166687435 0 0 0
7800 340 15 -0.83 14.58017752040564 31.774837179764454 -17.94731125440884 0 0 0
7802 340 16 0.415 15.00257313529485 31.57221934344245 -17.277836829886905 0 0 0
8162 460 16 0.415 11.258306306820687 31.973507547475073 -17.05529227785237 1 0 0
8295 505 15 -0.83 11.495915783762683 28.65498072200667 -14.66552563176581 0 0 0
8296 505 16 0.415 11.28842869200636 27.84182111775426 -15.70893894608954 0 0 0
8317 512 16 0.415 11.253269794447325 28.728509702069886 -16.396311056057755 1 0 0
8318 512 16 0.415 11.270857665023234 27.516396112247598 -14.944478869653613 1 0 0
8436 552 15 -0.83 14.663164040768907 28.63302821431796 -18.418702642816566 0 0 0
8437 552 16 0.415 15.684456413422259 28.30593476593267 -18.825174857511055 0 0 0
8438 552 16 0.415 14.284074571177493 28.35926456549045 -17.54587028029414 0 0 0
8441 553 16 0.415 11.246684331379116 31.20049390467556 -13.843998864107883 1 0 0
8609 609 16 0.415 12.102498946950131 31.639313616104495 -15.704711881785933 0 0 0
8892 704 15 -0.83 14.104574030310006 26.117530923157144 -15.136308529017207 0 0 0
8893 704 16 0.415 14.3306162755207 27.00301336254918 -14.539641541622382 0 0 0
8928 716 15 -0.83 18.30961194056411 28.95318368520922 -16.930449039459646 0 0 0
8929 716 16 0.415 18.28104167098886 27.866949720011696 -16.835949047301405 0 0 0
8930 716 16 0.415 17.55533291703887 29.566783317581397 -16.418736645085783 0 0 0
9045 755 15 -0.83 12.848307668332101 26.222948976680172 -11.69705221798051 0 0 0
9291 837 15 -0.83 16.988084003767707 25.93950906497962 -12.897797238493352 0 0 0
9292 837 16 0.415 17.400054814754085 26.549057651360236 -12.092038831274653 0 0 0
9293 837 16 0.415 17.64686456181137 25.577379857493522 -13.699066639988805 0 0 0
9327 849 15 -0.83 12.347415313489849 31.01289395536381 -12.424758121427988 0 0 0
9328 849 16 0.415 11.27347578485914 31.43240314691519 -12.245174818588117 0 0 0
9329 849 16 0.415 13.059616958278994 31.120958788920003 -11.691187652081686 0 0 0
6825 15 15 -0.83 20.123831721278044 29.26402686464511 -14.172282898349183 0 0 0
6826 15 16 0.415 19.32491147638713 28.621928986351307 -13.80177704078924 0 0 0
6827 15 16 0.415 20.876248556711214 28.85702372923968 -14.861774846205025 0 0 0
7428 216 15 -0.83 25.305336981527503 28.646100364432694 -13.983556082373768 0 0 0
7430 216 16 0.415 25.101915032075397 28.88565367004463 -12.931796917348132 0 0 0
7455 225 15 -0.83 24.94002406303541 30.091770835062484 -18.32206729412736 0 0 0
7456 225 16 0.415 24.241080698382703 29.40228298152528 -18.807485662158626 0 0 0
7457 225 16 0.415 24.70158597983716 30.530962205112456 -17.357868382502396 0 0 0
7523 247 16 0.415 20.94047454223432 25.746301618209447 -13.73850715024172 0 0 0
7761 327 15 -0.83 23.27136680787672 31.780241147583876 -13.383776296214899 0 0 0
7762 327 16 0.415 22.45473629401681 31.24469140368789 -12.897446329054672 0 0 0
7763 327 16 0.415 23.620933067951796 31.459071299272445 -14.37471891684769 0 0 0
8339 519 16 0.415 22.08589070526123 28.1688065111226 -11.753916147225024 0 0 0
8766 662 15 -0.83 21.979877407003798 26.58546082719847 -18.1505638961364 0 0 0
8767 662 16 0.415 22.34138137000313 27.162425236674018 -17.298689466684777 0 0 0
8768 662 16 0.415 22.68835263091946 25.995337018502653 -18.749622496380642 0 0 0
9015 745 15 -0.83 21.042709597854 31.186385038165195 -18.60003250397473 0 0 0
9016 745 16 0.415 21.95773402234434 31.781777686302842 -18.763275508892608 0 0 0