LAMMPS data file via write_data, version 29 Oct 2020, timestep = 177

6785 atoms
14 atom types
7210 bonds
18 bond types
11143 angles
23 angle types
19507 dihedrals
42 dihedral types

11.246593 53.753407 xlo xhi
11.246593 53.753407 ylo yhi
6.96606 62.059614 zlo zhi

Masses

1 12.01
2 1.008
3 12.01
4 16
5 14.01
6 1.008
7 16
8 14.01
9 1.008
10 12.01
11 14.01
12 12.01
13 1.008
14 16

Pair Coeffs # lj/cut/coul/long/omp

1 0.086 3.39967
2 0.015 2.59964
3 0.086 3.39967
4 0.21 2.95992
5 0.17 3.25
6 0.0157 1.06908
7 0.2104 3.06647
8 0.17 3.25
9 0 0
10 0.086 3.39967
11 0.17 3.25
12 0.086 3.39967
13 0.0157 1.06908
14 0.2104 3.06647

Atoms # full

1 1 6 0.157 15.487127920096595 18.550308704895716 14.351449828234026 0 0 0
2 1 1 0.0078 11.663910806229511 18.300319608079047 17.363415158248127 0 0 0
3 1 1 0.04 11.679375341447447 13.714890815767658 14.572616596906201 0 0 0
4 1 4 -0.2763 18.261361871644183 15.257889236539283 18.663334602087662 0 0 0
5 1 1 -0.0521 12.931035533668622 12.177264755102092 16.54585672064486 0 0 0
6 1 2 0.0866 14.259628470536462 15.174921480129706 14.043212641518151 0 0 0
7 1 2 0.0866 12.706881021548998 20.920734074775826 20.214725118450815 0 0 0
8 1 4 -0.2623 17.44771454918737 19.250258627899345 13.598847018640726 0 0 0
9 1 1 -0.0632 17.111582582376517 14.217129551372553 15.660324429400589 0 0 0
10 1 1 0.0077 17.69897754698858 15.480085318188864 15.850704891265657 0 0 0
11 1 1 -0.0444 17.056436810518353 16.629100566038957 15.347938366394331 0 0 0
12 1 1 -0.0091 15.795288993173184 16.525819045455396 14.71560904128444 0 0 0
13 1 8 -0.3506 15.059975089530107 17.6441494136908 14.245267591009776 0 0 0
14 1 2 0.0896 17.544370325177905 17.589956723979153 15.467840558469824 0 0 0
15 1 1 -0.0632 13.854032758424136 16.81070036853155 18.29861785912137 0 0 0
16 1 2 0.0866 14.691241701258221 16.264146723780488 18.725516334272378 0 0 0
17 1 2 0.0839 15.05124887221264 18.5279885459793 17.746800152593487 0 0 0
18 1 1 0.04 13.092377057586846 11.793751137392434 15.187858901708259 0 0 0
19 1 4 -0.2763 12.012810252878797 12.805621696231661 19.19375799603546 0 0 0
20 1 1 -0.0645 15.220280136935031 15.26015106116418 14.542200431073054 0 0 0
21 1 1 -0.051 12.353565451797884 12.515995175649104 14.221818116952745 0 0 0
22 1 2 0.0872 13.388502645394391 11.595222611812467 17.340879265613754 0 0 0
23 1 1 -0.0801 14.052805686274603 18.099189802508 17.770510657623955 0 0 0
24 1 2 0.0839 15.432710399641078 13.138703201919602 14.830872539016077 0 0 0
25 1 2 0.0866 13.10816058410818 19.817963425600535 16.843800841745995 0 0 0
26 1 2 0.0866 17.612901713595427 13.320992059555474 16.015604110516104 0 0 0
27 1 1 -0.0632 12.9597914747916 18.831592974575862 17.274199184525756 0 0 0
28 1 1 0.0078 12.57025097787939 16.236537266802724 18.293501293824214 0 0 0
29 1 2 0.0872 12.362808367116747 12.177578601979638 13.188534760929365 0 0 0
30 1 1 -0.0801 15.880165113191284 14.109886974538934 14.995539409610672 0 0 0
31 1 1 0.0278 12.263938244630559 13.369222017418203 16.91790797635419 0 0 0
32 1 10 0.2266 12.139666299624055 13.706757939186138 18.390789675463033 0 0 0
33 1 6 0.1829 12.407759495472371 15.014125054877786 19.91871541204381 0 0 0
34 1 11 -0.2514 12.351447616357278 14.98092896209753 18.908094563260562 0 0 0
35 1 1 0.0078 17.5600220964816 11.564468782617471 20.017011981292615 0 0 0
36 1 1 -0.0521 11.667842771162476 14.143299496013094 15.911357814262368 0 0 0
37 1 1 -0.043 11.473745793719539 17.001683557338474 17.864709209011547 0 0 0
38 1 6 0.157 15.474359840805867 18.568328117889017 14.343441672635299 0 0 0
39 1 12 0.2765 17.579265630624825 20.432525229817617 13.369882503259248 0 0 0
40 1 11 -0.2514 17.221365368918555 12.762766409974715 20.716802852094197 0 0 0
41 1 7 -0.379 16.966394182082503 20.967731299747182 12.262500310297861 0 0 0
42 1 6 0.157 18.926045567488234 19.42810024442932 11.557530325302409 0 0 0
43 1 8 -0.3506 19.876524779611415 19.610699035901693 11.885315769416621 0 0 0
44 1 1 -0.0531 20.927592291421306 15.203560368898545 19.699924340271274 0 0 0
45 1 2 0.0866 18.966651134425348 12.606727919182347 18.739239519702696 0 0 0
46 1 1 -0.0632 18.53253979399773 11.647901832682445 19.002603389074043 0 0 0
47 1 2 0.0871 20.135327515323205 14.997773007583978 20.413131954509364 0 0 0
48 1 2 0.0866 20.492600534287508 14.559018774532467 11.970284349676094 0 0 0
49 1 6 0.157 18.942277572157643 19.4013870596033 11.5779923205698 0 0 0
50 1 1 -0.0801 21.147857231513143 16.17893677485009 13.237909693241084 0 0 0
51 1 1 0.0277 20.62220312575137 15.396482553248525 18.337196377856085 0 0 0
52 1 4 -0.2763 18.41743469328283 20.62344129017058 18.596803281127784 0 0 0
53 1 2 0.0839 20.825135399617565 18.571614383518533 18.725857062637058 0 0 0
54 1 1 -0.0531 21.67727468900878 15.64058484047498 17.43420101058805 0 0 0
55 1 10 0.2266 19.180877251522308 15.399733647335182 17.875434128654906 0 0 0
56 1 1 -0.0521 18.692138574592757 20.91825152909442 15.635552160943027 0 0 0
57 1 1 -0.0801 21.771148178472046 19.067704565002337 18.524039725283128 0 0 0
58 1 11 -0.2514 18.948788865854752 15.585169722321748 16.517329660898714 0 0 0
59 1 2 0.0871 21.43435413204775 15.793539877291416 16.402683309856865 0 0 0
60 1 10 0.2266 19.047461687778465 21.52909723961685 18.079555270530683 0 0 0
61 1 1 -0.0092 20.384442123189558 20.860469171691506 11.500466956969655 0 0 0
62 1 2 0.0895 21.241674354856844 21.247327825654654 13.403664424278542 0 0 0
63 1 6 0.1829 19.73564147760717 15.844064013726214 15.937636106073976 0 0 0
64 1 1 0.04 18.3484620661065 21.317856281883344 14.316826946090984 0 0 0
65 1 2 0.0872 18.77376860346445 19.86585657975466 15.910251522910485 0 0 0
66 1 1 -0.0645 21.24026422431521 14.88703094590641 12.688677897178614 0 0 0
67 1 2 0.0866 21.667885615131585 18.72092977168651 16.4096110235499 0 0 0
68 1 1 -0.0457 21.186011940759446 21.59295450502077 12.381707839518139 0 0 0
69 1 2 0.0839 20.338481253658998 16.843570211019358 12.94285969172203 0 0 0
70 1 2 0.0866 19.542679961542774 20.39544940998809 20.641162444172146 0 0 0
71 1 1 -0.0645 20.130752769685134 21.353671960432347 10.21564887362863 0 0 0
72 1 2 0.0866 19.416001807604776 20.862152826203392 9.566479599727153 0 0 0
73 1 2 0.0896 25.108729720845485 20.920526228137923 17.805599086037116 0 0 0
74 1 6 0.157 22.556238340106635 12.595345567582797 11.601990633882416 0 0 0
75 1 1 -0.0531 23.263831039344456 15.675672178604486 19.251363014301507 0 0 0
76 1 11 -0.2514 24.293176608983103 21.091687587551768 20.38583495814487 0 0 0
77 1 1 0.0277 22.245576813432045 15.349258553925504 20.165358187506982 0 0 0
78 1 8 -0.3506 24.244974875542905 19.54132557932637 15.768878322440058 0 0 0
79 1 10 0.2266 24.13822972312291 16.250779816799497 16.94889202266077 0 0 0
80 1 11 -0.2514 24.08729910358788 16.20148027907652 15.55265533163174 0 0 0
81 1 1 0.0077 23.109557105338446 15.744930889537372 14.623294144749547 0 0 0
82 1 1 -0.0091 23.52947503672007 19.720567947235576 16.977751422213966 0 0 0
83 1 6 0.1829 24.92678003018463 16.560872794637547 15.112522769138042 0 0 0
84 1 2 0.0866 22.127555396662896 19.532395137819265 20.597625481936895 0 0 0
85 1 4 -0.2763 25.170046366169366 16.667576230145087 17.443327390554387 0 0 0
86 1 1 -0.0632 22.508480157878658 19.616100031067855 19.58539662061546 0 0 0
87 1 6 0.157 23.749718807683436 19.219013325194805 14.951427822667634 0 0 0
88 1 1 -0.0444 24.185971139783888 20.3926159491099 18.02287009621257 0 0 0
89 1 2 0.0866 23.27904782422814 12.836361631447433 19.93286109003509 0 0 0
90 1 2 0.0871 24.262396367919603 15.848787162066643 19.640757501262176 0 0 0
91 1 1 -0.0444 23.202758764018267 14.457707900014178 14.059140404036093 0 0 0
92 1 2 0.0896 24.006049884864957 13.792107178711099 14.35918678608452 0 0 0
93 1 2 0.0839 24.7607407663849 13.582861267919487 16.978723172945124 0 0 0
94 1 1 -0.0632 22.49363743811175 12.276946638855495 20.433427481641637 0 0 0
95 1 1 0.0077 23.686933850587714 20.341618879936977 19.336819806298113 0 0 0
96 1 8 -0.3506 22.379668663181487 12.697657267851127 12.591543812925078 0 0 0
97 1 1 0.0277 23.00737373032301 15.804756925229414 17.866036706678365 0 0 0
98 1 2 0.0866 22.039946143515852 17.62597921611201 14.562084657811832 0 0 0
99 1 1 -0.0645 22.258834051080907 19.15313691679593 17.210060627329216 0 0 0
100 1 1 -0.0632 22.101260310265467 16.61694752694096 14.17147024400209 0 0 0
101 1 1 -0.0091 22.278216702077447 14.022032686396017 13.090604237135002 0 0 0
102 1 7 -0.379 23.861983173085264 21.378728588781772 13.645471967634323 0 0 0
103 1 6 0.157 23.730704125005605 19.215768144254426 14.954046323732626 0 0 0
104 1 6 0.157 22.55738887101435 12.578086985417306 11.596066248590844 0 0 0
6722 1 9 0.2886 23.210150436231544 21.238697354342477 12.913626187549443 0 0 0
105 1 6 0.1829 30.090866103594816 15.22700832160635 16.5409148444535 0 0 0
106 1 1 -0.0531 30.076309977562698 13.974742593904075 14.544071746837664 0 0 0
107 1 4 -0.2763 27.538656330687754 16.4547359825611 15.157622271662325 0 0 0
108 1 10 0.2266 28.01663425972525 21.177519544317377 18.976683052838375 0 0 0
109 1 1 0.0078 29.69381926377783 17.10075080372921 17.213390333339454 0 0 0
110 1 1 -0.043 29.02542623649335 18.33691810229607 17.106235850738287 0 0 0
111 1 1 0.0078 29.462299883821654 19.44184395973988 17.861725231419 0 0 0
112 1 11 -0.2514 28.665817179363525 20.61266928074088 17.888538030625302 0 0 0
113 1 2 0.0896 28.15408464818105 18.446240257918408 16.468363967892692 0 0 0
114 1 2 0.0866 31.302722858822214 16.035484528892667 18.189231794816312 0 0 0
115 1 10 0.2266 31.817972092444425 12.291952969589326 13.840662430591607 0 0 0
116 1 2 0.0866 26.024812788653723 12.003986232724163 15.577389670716943 0 0 0
117 1 2 0.0866 30.990019491077327 20.203249626074875 19.20549504490776 0 0 0
118 1 4 -0.2415 25.860648614303695 12.565464744106924 12.085412682997804 0 0 0
119 1 11 -0.2514 28.03918098065271 13.593733183785575 20.239614900082564 0 0 0
120 1 1 -0.0531 27.94089117174191 19.152052917816167 20.511597053350556 0 0 0
121 1 2 0.0871 27.846318161342662 18.505731071622076 19.64467941554491 0 0 0
122 1 1 -0.0632 26.48335774216238 12.39934107832562 16.478870649547122 0 0 0
123 1 1 0.0277 28.116217461204645 20.535817151287823 20.334980670580023 0 0 0
124 1 1 -0.0801 31.290826992476795 18.11398679990312 18.75970074499118 0 0 0
125 1 1 -0.0801 25.761381514352944 13.293230573000377 17.283888029533877 0 0 0
126 1 1 -0.0632 30.62527334071046 19.343838965980673 18.64924402473911 0 0 0
127 1 6 0.1829 28.463410095740443 21.021101556270068 16.984047057023766 0 0 0
128 1 1 -0.0632 30.798303141456724 16.991463906702233 18.077405335876183 0 0 0
129 1 2 0.0896 29.31740669095976 12.191165932905115 18.36426519103542 0 0 0
130 1 12 0.3852 27.010755029308662 12.159825685458568 12.10835717765686 0 0 0
131 1 6 0.1829 28.036765842187346 14.573099351736916 20.510450617488285 0 0 0
132 1 1 -0.0507 29.431805010173086 12.32147239275766 12.904828489578902 0 0 0
133 1 1 0.0278 30.42847755242081 12.88892545751065 13.730852898425082 0 0 0
134 1 1 -0.0507 27.782112458177753 13.887581855962576 13.78219872814821 0 0 0
135 1 1 0.0278 28.77127145738645 14.497807372315094 14.577163314200336 0 0 0
136 1 1 -0.0632 26.313522115250557 13.77440787641779 18.4878717134586 0 0 0
137 1 10 0.2266 28.46916191856892 15.714210365737827 15.420968424633054 0 0 0
138 1 2 0.0866 25.736131609434903 14.435263507347898 19.120960560406605 0 0 0
139 1 2 0.0872 29.678277535487467 11.470750298147054 12.275308120697668 0 0 0
140 1 2 0.0871 30.83614863375253 14.414485802550548 15.165499845677935 0 0 0
141 1 1 0.0586 28.09997767336097 12.801681992273755 12.936282493036627 0 0 0
142 1 1 0.0078 27.580726290181875 13.337249218166331 18.912248479001676 0 0 0
143 1 2 0.0872 26.75801807098074 14.248351036538025 13.840082183722982 0 0 0
144 1 11 -0.2514 29.39878402658676 15.953810878645312 16.427888691952912 0 0 0
145 1 1 -0.043 28.334785196916226 12.528538404711652 18.04954444326793 0 0 0
146 1 1 0.0078 27.784711464241273 12.030750246644546 16.857226977853795 0 0 0
147 1 4 -0.2763 31.813057929677115 13.211110068204144 19.38764151327036 0 0 0
148 1 2 0.0896 32.10143631236399 12.495833712261913 17.212267674411937 0 0 0
149 1 2 0.0839 32.18144433074531 18.026951467049784 19.37732216514373 0 0 0
150 1 6 0.1829 32.40160260018275 13.626714548096547 15.225347948346322 0 0 0
2661 1 4 -0.2763 32.196619631808325 11.36906689786443 13.175924528179198 0 1 0
151 1 1 0.0277 14.538396778646842 16.773957880644797 21.725999960555704 0 0 0
152 1 1 -0.0531 14.636459924355218 15.379501557933319 21.514439866668713 0 0 0
153 1 2 0.0871 13.730545160001785 14.801421194408414 21.372545578069296 0 0 0
154 1 6 0.1829 17.983719406843743 13.420488258290815 20.81127052592482 0 0 0
155 1 10 0.2266 15.959463625535264 13.261060945748484 21.02850015860167 0 0 0
156 1 4 -0.2763 12.142308122784792 16.820219514582014 21.759909695677763 0 0 0
157 1 1 -0.0632 12.009695582741797 20.839859330217596 21.04249559733411 0 0 0
158 1 10 0.2266 13.181859984585916 17.456375212407266 21.77147730730663 0 0 0
159 1 1 0.0277 15.886603416278941 14.723873822221922 21.435567105042608 0 0 0
160 1 4 -0.2763 14.948748269928581 12.6062065123507 20.839474251730497 0 0 0
161 1 1 -0.0531 15.730476704416112 17.50173524356468 21.92422172589021 0 0 0
162 1 6 0.1829 14.069330509823267 19.298854930029915 21.61028006622209 0 0 0
163 1 11 -0.2514 13.183556103369485 18.845483384936706 21.785034291808785 0 0 0
164 1 1 -0.0531 17.049957339223496 15.47538487003547 21.705878309225874 0 0 0
165 1 2 0.0871 14.95254776962637 12.604005515667563 28.869614043595067 0 0 0
166 1 4 -0.2763 12.810061727889236 15.919381586264338 28.63398338672874 0 0 0
167 1 1 -0.0632 16.624120520056238 17.892812366087806 25.116708126645833 0 0 0
168 1 6 0.1829 13.618962688390818 12.487702555721894 23.48987552128708 0 0 0
169 1 1 0.0078 15.291710102754159 20.371805650001985 24.9690208229437 0 0 0
170 1 2 0.0871 12.282997822184274 13.181462915521532 22.573874888667934 0 0 0
171 1 1 -0.043 16.565667319306538 12.778266861317435 24.829785695428267 0 0 0
172 1 2 0.0866 17.12100306366165 16.928501870140405 25.16397787198007 0 0 0
173 1 1 -0.0531 14.039814531754368 20.841780828971388 31.933601314444797 0 0 0
174 1 2 0.0896 16.742378536995542 13.792573223247974 24.48571411300375 0 0 0
175 1 11 -0.2514 18.179924748578635 18.57968794900813 23.373962403996597 0 0 0
176 1 6 0.1829 13.299803690594864 12.860260356637404 29.207410286677693 0 0 0
177 1 10 0.2266 13.840017967827077 14.217137388945643 24.581834906972038 0 0 0
178 1 2 0.0871 15.691063362186304 18.57505216635776 22.071739795297074 0 0 0
179 1 1 0.0078 17.58553316794519 12.033275714114815 25.442539678578544 0 0 0
180 1 10 0.2266 13.379494304963158 14.863132021647393 28.850792300940597 0 0 0
181 1 2 0.0839 15.135992884550392 17.3694019433389 26.584361890845337 0 0 0
182 1 1 -0.0801 15.49805571813499 18.137877383023113 25.913961243335645 0 0 0
183 1 1 -0.0632 14.821510274500843 19.362359454297316 25.825195006427016 0 0 0
184 1 10 0.2266 17.82059648157063 17.1594133553409 28.502181138549076 0 0 0
185 1 1 0.0278 14.005946126262979 21.23710394178992 30.5811627432838 0 0 0
186 1 1 0.0277 12.484205418596382 14.67061592448764 24.11523005680864 0 0 0
187 1 11 -0.2514 11.802991495040672 20.205394886226156 30.253938035354956 0 0 0
188 1 1 -0.0801 17.574245182630115 16.12062341434601 32.00841392984106 0 0 0
189 1 1 -0.0531 15.538575066148272 13.51468449787152 28.858595662434748 0 0 0
190 1 4 -0.2763 14.441871758071423 14.804875034261865 25.465936680658213 0 0 0
191 1 2 0.0866 13.917365934779712 19.51673756249012 26.40776311153152 0 0 0
192 1 1 -0.0507 15.217309791559108 21.566174788185638 29.942286644606963 0 0 0
193 1 4 -0.2763 17.30999113634426 18.247105037834267 28.711714893072234 0 0 0
194 1 1 -0.0507 16.468127671154427 20.840193149882463 31.899391271062523 0 0 0
195 1 1 0.0078 17.09789145904142 18.883690552214674 24.243583594537423 0 0 0
196 1 1 -0.0531 11.843822680825149 15.720514844732163 24.787070957769885 0 0 0
197 1 1 -0.0632 16.382509592220625 15.55175612273781 32.48208012124758 0 0 0
198 1 1 0.0078 15.301096839250398 12.19962306436555 24.642279410154394 0 0 0
199 1 1 -0.0531 17.69504858738978 14.618370102379867 28.75749394599139 0 0 0
200 1 11 -0.2514 14.52230964568691 21.566470851007804 24.872201825028966 0 0 0
201 1 1 0.0586 16.454144712277525 21.33568451960309 30.57879542250589 0 0 0
202 1 1 0.0078 12.08910543137605 19.74289066489601 21.917838973418046 0 0 0
203 1 2 0.0896 16.860358853655253 20.921608267988734 23.56492023090251 0 0 0
204 1 1 -0.043 16.46774409738391 20.14535444728188 24.215759797794725 0 0 0
205 1 11 -0.2514 12.713756275878875 13.679148113666185 29.124972190423463 0 0 0
206 1 11 -0.2514 14.237607527861163 12.969775451241475 24.127367111711273 0 0 0
207 1 6 0.1829 11.990115177755236 19.806446754964018 31.16426332001029 0 0 0
208 1 10 0.2266 17.65053101004783 12.109317724344068 29.009323185392255 0 0 0
209 1 1 0.0277 16.944407679141708 13.433226673242169 28.872302334512806 0 0 0
210 1 10 0.2266 12.756413163248563 21.08251847309637 29.747975198214817 0 0 0
211 1 2 0.0872 17.416855595076505 20.634450233297773 32.38761813110132 0 0 0
212 1 1 -0.0531 15.655942900863765 15.931387552058958 28.79135183226527 0 0 0
213 1 1 0.0277 17.0569286077586 15.876128810251661 28.700032003596355 0 0 0
214 1 1 0.0277 14.882377606965695 14.760535162796403 28.837302054456707 0 0 0
215 1 2 0.0871 15.158822248355028 16.896075698472558 28.773697784512645 0 0 0
216 1 2 0.0871 12.40067680809197 16.26162369706353 25.54613804212486 0 0 0
217 1 4 -0.2763 14.714665714455254 12.048698742435237 31.583700341351186 0 0 0
218 1 10 0.2266 18.238897968435214 17.600076918902328 22.38459199196593 0 0 0
219 1 4 -0.2763 12.70982387908537 21.49353900783062 28.59931635201581 0 0 0
220 1 1 0.0277 16.979878878812045 16.853437212797836 21.99743086323557 0 0 0
221 1 2 0.0896 12.065885682805737 18.69747342771277 28.072237552637574 0 0 0
222 1 12 0.3852 17.750210314822912 21.500449610050463 29.832772349564355 0 0 0
223 1 1 -0.0531 11.77853852104599 13.965409334864132 23.125518951829697 0 0 0
224 1 2 0.0839 17.628196508620835 17.189865323959076 31.81900448214445 0 0 0
225 1 1 0.0078 11.328518418199911 13.401176097820915 29.23712446564215 0 0 0
226 1 2 0.0871 18.018269835865162 14.986257973701457 21.71201181725968 0 0 0
227 1 10 0.2266 14.37122823013111 12.571516555611053 32.63229325887994 0 0 0
228 1 1 0.0078 16.299860955951765 14.16953970866299 32.70406034143688 0 0 0
229 1 1 0.0278 13.087469280905818 12.17947005067398 33.32397714489266 0 0 0
230 1 10 0.2266 15.235238784177925 19.959903081674273 33.945806317214824 0 0 0
231 1 2 0.0896 13.40053883597099 17.80629639051605 34.00724958596127 0 0 0
232 1 6 0.1829 16.448435794676953 18.431863740925674 33.28568619589 0 0 0
233 1 1 0.0278 15.263764056924956 20.59385207397784 32.5832142772039 0 0 0
234 1 11 -0.2514 15.85538688005944 18.72335952986386 34.052494585097136 0 0 0
235 1 11 -0.2514 15.08823162447782 13.616239513275866 33.195000314569455 0 0 0
236 1 4 -0.2763 12.438775531111862 15.746647941278367 32.8063090678996 0 0 0
237 1 1 -0.0531 12.123087838153218 11.4539486887858 32.60286635960991 0 0 0
238 1 6 0.1829 14.644073570134733 14.12884055009806 33.94599905286093 0 0 0
239 1 2 0.0896 17.361215606242883 12.289428439835406 32.634044650814054 0 0 0
240 1 10 0.2266 11.708221316355877 15.619128866234421 33.77497409237153 0 0 0
241 1 1 -0.043 17.42323434219725 13.358800538432616 32.45359329961618 0 0 0
242 1 2 0.0871 13.116277988879293 20.60237877949636 32.45324056291988 0 0 0
243 1 2 0.0866 15.513315683360892 16.17804258894428 32.651804713417015 0 0 0
244 1 6 0.1829 13.929189277949478 21.75177519133256 25.670428342282516 0 0 0
245 1 2 0.0866 11.692569789028008 11.293766210286742 28.92731768674602 0 0 0
2763 1 6 0.1829 15.875166853562046 11.25445471314281 29.54819115016571 0 1 0
3765 1 6 0.1829 11.247285566370333 16.68476738713854 26.871150986554525 1 0 0
246 1 4 -0.2623 23.676569132542713 21.243437728551687 34.486615449003494 0 0 0
247 1 1 -0.0632 20.0675907088169 21.276381910334248 20.984976129773777 0 0 0
248 1 1 0.0078 21.896089162828464 12.773022058021954 21.60210274158242 0 0 0
249 1 2 0.0871 21.103965529434888 15.84970366897563 25.144943927692875 0 0 0
250 1 2 0.0871 18.779175197834512 14.552568272330134 28.740170852299144 0 0 0
251 1 1 -0.0632 19.46555299083125 19.15673284589883 26.74769014416633 0 0 0
252 1 2 0.0866 21.338049983483035 21.561267294612083 31.2486442686936 0 0 0
253 1 1 0.0078 19.936027560239534 17.980837786102775 27.367357617284487 0 0 0
254 1 1 -0.0632 21.55805006913812 19.338860889057734 25.52677147520753 0 0 0
255 1 4 -0.2763 18.852657845652345 12.014401382414475 28.831364317403324 0 0 0
256 1 10 0.2266 20.87501177705948 13.182591867153658 30.997656033908488 0 0 0
257 1 11 -0.2514 19.071530874231087 17.010437575120402 27.933079302489787 0 0 0
258 1 6 0.1829 19.35926120050836 16.05781198371624 27.75013989041072 0 0 0
259 1 10 0.2266 19.434432878252917 13.761663712636121 25.592766905627343 0 0 0
260 1 2 0.0871 21.05327763079478 11.790892277458092 26.62088119473384 0 0 0
261 1 6 0.1829 19.58528095561355 11.72914404826512 25.6553188020083 0 0 0
262 1 1 -0.0632 18.685251068143668 15.30405888765207 31.73970825352541 0 0 0
263 1 4 -0.2415 18.7798295644386 20.95622485719247 30.1867748963793 0 0 0
264 1 11 -0.2514 18.91848327606184 12.48017996633057 25.53944839381162 0 0 0
265 1 4 -0.2763 21.11119603666764 14.167304112693383 30.320851258843316 0 0 0
266 1 1 0.0277 20.911614361187052 13.82119042946357 25.857896339297195 0 0 0
267 1 6 0.1829 19.069385489570525 18.973544062341457 23.65374170830533 0 0 0
268 1 4 -0.2763 18.758288530751276 14.768960743061683 25.483623815712583 0 0 0
269 1 2 0.0866 19.577781920448377 15.765910658730968 31.336124217048116 0 0 0
270 1 2 0.0866 18.44458848720564 19.498903127520478 26.888469567818422 0 0 0
271 1 2 0.0896 20.441552013955764 12.405126122165752 23.162448162598615 0 0 0
272 1 1 0.0078 18.624128804054926 13.913492642705645 31.970475429602597 0 0 0
273 1 1 -0.043 20.902237909628568 12.021989422789249 22.257809945724063 0 0 0
274 1 1 -0.0632 21.410807833573894 20.52819208671686 31.578478688744788 0 0 0
275 1 2 0.0839 19.931347234469662 20.758308366421293 25.37276244410181 0 0 0
276 1 2 0.0896 21.635751089640106 16.708984993188498 27.701702841377088 0 0 0
277 1 1 -0.043 21.2661536948194 17.580590622573297 27.16991396286909 0 0 0
278 1 11 -0.2514 19.734990171079414 13.037245286352862 31.78420477218376 0 0 0
279 1 1 -0.0801 20.293504709700986 19.853351607098702 25.853412693673494 0 0 0
280 1 1 -0.0531 21.590724473509617 12.705516710725714 26.393356302421395 0 0 0
281 1 1 -0.0801 20.43641104986243 21.335581096181816 22.33361083015062 0 0 0
282 1 1 -0.0531 21.622824355931122 15.009818874703475 25.597991217234824 0 0 0
283 1 6 0.1829 19.671925158893306 12.178783170541266 32.317468277352184 0 0 0
284 1 2 0.0839 20.179738916757838 20.50740616660295 22.984248452945522 0 0 0
285 1 1 0.0078 21.57064290791345 17.84797507470507 32.407428661394874 0 0 0
286 1 4 -0.2763 19.321802573021543 17.274074646907206 21.928914012595257 0 0 0
287 1 11 -0.2514 21.509646389361624 16.51340866177766 32.87336538084561 0 0 0
288 1 6 0.1829 20.61486169637711 16.254407228541105 33.2632755907755 0 0 0
289 1 11 -0.2514 20.430582851563337 21.15739460046047 33.7208931942071 0 0 0
290 1 2 0.0871 20.143884412754254 14.902927878171509 34.372914103096996 0 0 0
291 1 2 0.0896 20.74627299094614 18.528164845105383 34.26120393710731 0 0 0
292 1 1 -0.043 21.07208403041432 18.827575624219435 33.27139797047746 0 0 0
293 1 1 0.0078 20.969104891405955 20.166188924261697 32.861757668264204 0 0 0
294 1 10 0.2266 22.577075388917482 15.19381839793083 21.626518228635728 0 0 0
295 1 10 0.2266 24.588136278558004 20.62492926760485 21.6671192848728 0 0 0
296 1 11 -0.2514 22.401282693596734 13.94631001392453 22.202867179729278 0 0 0
297 1 2 0.0839 24.599153458917343 13.071134934110745 23.27866665254486 0 0 0
298 1 2 0.0871 25.019648524909712 20.169094767464447 24.342896667977268 0 0 0
299 1 10 0.2266 24.343911875019177 21.60140205569549 26.664349228536217 0 0 0
300 1 10 0.2266 25.280328471598228 15.640765330800889 29.491375246777615 0 0 0
301 1 6 0.1829 23.929970831865635 18.3708141005078 25.433737143709063 0 0 0
302 1 1 0.0078 22.03463666189822 18.174639880909165 26.153663229556994 0 0 0
303 1 1 0.0078 25.15615322678138 18.109394142849258 29.94184678818452 0 0 0
304 1 1 -0.043 25.08199549901585 18.616886032430152 28.634400662310984 0 0 0
305 1 1 0.0078 25.202543695954294 19.992441150584753 28.38921372784647 0 0 0
306 1 11 -0.2514 24.826527575110585 16.75631347649478 30.168048286163057 0 0 0
307 1 2 0.0896 24.863910926060434 17.941187449111677 27.817819758438873 0 0 0
308 1 1 -0.0632 21.987450421881395 18.207828091361414 31.111014492776793 0 0 0
309 1 6 0.1829 22.84523104853007 13.800306018583301 23.102248031134646 0 0 0
310 1 1 0.0277 22.99135760670217 15.115585393182704 25.915568567133302 0 0 0
311 1 4 -0.2763 24.83455325382511 11.722910900739812 27.66774311463393 0 0 0
312 1 1 -0.0531 24.7734072427168 21.20658707072285 24.14291919382005 0 0 0
313 1 10 0.2266 23.718143989395802 11.577066457454226 27.20913496658311 0 0 0
314 1 11 -0.2514 25.067740605821704 20.48329886175902 27.05535894467797 0 0 0
315 1 10 0.2266 23.812470809273265 16.36657978570895 25.67112773436761 0 0 0
316 1 2 0.0871 23.567153623299525 13.336270781467132 31.297699149384492 0 0 0
317 1 6 0.1829 23.91844343047531 16.63849145684724 30.60462948039925 0 0 0
318 1 1 -0.0531 23.239523653510986 12.30532921009472 31.21362286918286 0 0 0
319 1 2 0.0871 24.714368829860767 14.013360464751418 26.594732309550416 0 0 0
320 1 4 -0.2763 24.530419779195725 14.68507493647141 29.40452209837756 0 0 0
321 1 1 -0.0531 23.648211422462044 13.970016304905611 26.40960545771504 0 0 0
322 1 2 0.0839 22.191692170104474 19.835514403627105 29.687975566057556 0 0 0
323 1 4 -0.2763 25.010194675207387 16.276065229302855 25.474492087858028 0 0 0
324 1 1 0.0277 22.96645513918918 12.764327358614167 26.65978732332826 0 0 0
325 1 11 -0.2514 23.28348331992955 17.652506709294364 25.726174405493378 0 0 0
326 1 1 0.0277 24.642543372251208 21.635170803379033 22.795624281586907 0 0 0
327 1 4 -0.2763 23.150107727384928 16.071048208354842 22.245056965316962 0 0 0
328 1 2 0.0866 22.1591920714885 19.833920157349343 24.769723979419858 0 0 0
329 1 4 -0.2763 24.604602100775235 19.43236111034114 21.913471606100146 0 0 0
330 1 2 0.0866 22.349583317029452 17.459614426736877 30.415741270544643 0 0 0
331 1 1 -0.0801 21.898805288608827 19.54969819050993 30.69607542562916 0 0 0
332 1 1 0.0278 21.85875175967411 12.047526517267722 31.079465974444563 0 0 0
333 1 4 -0.2763 23.703442013282206 15.932968640995567 32.82224846522677 0 0 0
334 1 2 0.0872 24.268743768715492 13.744260569500524 33.87826063073601 0 0 0
335 1 10 0.2266 22.569302996565675 15.693081176637307 33.19846366831581 0 0 0
336 1 1 -0.0521 23.26661277493872 13.534083324690277 34.24400628371788 0 0 0
337 1 1 0.0278 22.24883370358598 14.480017390817931 34.04126623509272 0 0 0
338 1 1 0.0278 24.169152049529604 11.247252810286593 31.33708496670836 0 0 0
339 1 1 -0.0632 25.38170765547037 18.9745447615907 31.02574987791833 0 0 0
365 1 2 0.0866 25.41419299352457 18.59166321276275 32.044720209420525 0 0 0
340 1 1 -0.0531 28.205875322354913 21.36299836510001 21.468505354497793 0 0 0
341 1 1 0.0277 27.782020077202148 18.598372500560533 21.794201920854075 0 0 0
342 1 2 0.0871 32.07649909105233 14.63196344075203 21.601117307725698 0 0 0
343 1 10 0.2266 28.561333482312985 12.7185924231672 21.197920173297444 0 0 0
344 1 4 -0.2763 27.43706524727451 16.40574383530949 20.930629894065312 0 0 0
345 1 6 0.1829 25.502210593925913 19.930710265975865 26.33218587220007 0 0 0
346 1 1 -0.043 32.13333062864771 17.590995750861367 31.822235966919106 0 0 0
347 1 1 0.0078 27.20487526094739 15.254049633161463 23.571530147530545 0 0 0
348 1 1 -0.0531 27.71012274678429 16.50587038734478 29.234658448319678 0 0 0
349 1 11 -0.2514 27.880208656981928 21.22105176485632 25.199402295669607 0 0 0
350 1 1 -0.0531 27.039852008185193 14.426031519914845 28.19920197959731 0 0 0
351 1 1 -0.0632 30.202413653927383 13.84047406256225 32.06762012410862 0 0 0
352 1 2 0.0871 27.530361182578147 17.347657763935413 29.893009648499007 0 0 0
353 1 1 -0.0531 27.749828794392496 19.465433821338486 22.909397953713913 0 0 0
354 1 1 -0.0531 29.340106448657636 15.152556614349418 28.033231050871443 0 0 0
355 1 6 0.1829 31.308595834696156 15.813324709777124 22.803914774581713 0 0 0
356 1 2 0.0896 31.12763387268342 17.810036420224943 32.16032898312747 0 0 0
357 1 6 0.1829 27.446582124058935 20.309874130402637 25.188502813098236 0 0 0
358 1 1 -0.0632 27.81152723418754 14.262185786742451 32.232049194902146 0 0 0
359 1 1 -0.0632 31.159638804663402 20.303887811196113 24.305662815986064 0 0 0
360 1 1 0.0078 27.519578597539354 13.316481036173924 25.02402505722233 0 0 0
361 1 10 0.2266 28.72080919693329 12.86722162782926 27.1931940669412 0 0 0
362 1 1 -0.043 28.623746447413335 12.309009754882167 31.042319570426667 0 0 0
363 1 1 0.0078 27.54901517797785 13.08847409363822 31.506012404217547 0 0 0
364 1 11 -0.2514 31.06852876637647 11.800147279685223 31.116613224649605 0 0 0
366 1 1 -0.0801 25.559952733958756 13.459004124958417 23.593021790360993 0 0 0
367 1 1 0.0078 31.500039017488763 19.490876381537745 25.40078899429134 0 0 0
368 1 1 0.0277 28.348189885405283 14.204417807972684 27.751830509062376 0 0 0
369 1 6 0.1829 25.621842992444403 13.374167395925248 30.793857311547303 0 0 0
370 1 6 0.1829 27.742591563763206 17.203355806064355 23.96566253064255 0 0 0
371 1 2 0.0871 26.313913866232674 13.639267080682066 28.053370541562472 0 0 0
372 1 10 0.2266 27.584929767488777 17.106291762935893 21.91729918262138 0 0 0
373 1 1 -0.0632 26.038196413194836 14.662638599151737 23.05426936070673 0 0 0
374 1 6 0.1829 31.14594130361343 20.880752296487255 26.905323492682367 0 0 0
375 1 1 -0.0632 28.66582761963014 20.94424079986257 27.503350395209576 0 0 0
376 1 2 0.0839 25.649835125831572 21.026848092911933 31.63343794062028 0 0 0