LAMMPS data file via write_data, version 29 Oct 2020, timestep = 274

7840 atoms
16 atom types
7773 bonds
19 bond types
11445 angles
24 angle types
19495 dihedrals
42 dihedral types

11.246593 53.753407 xlo xhi
11.246593 53.753407 ylo yhi
-2.5 67.5 zlo zhi

Masses

1 12.01
2 1.008
3 12.01
4 16
5 14.01
6 1.008
7 16
8 14.01
9 1.008
10 12.01
11 14.01
12 12.01
13 1.008
14 16
15 15.9994
16 1.008

Pair Coeffs # lj/cut/coul/long/omp

1 0.086 3.39967
2 0.015 2.59964
3 0.086 3.39967
4 0.21 2.95992
5 0.17 3.25
6 0.0157 1.06908
7 0.2104 3.06647
8 0.17 3.25
9 0 0
10 0.086 3.39967
11 0.17 3.25
12 0.086 3.39967
13 0.0157 1.06908
14 0.2104 3.06647
15 0.102 3.188
16 0 0

Atoms # full

6984 216 16 0.415 16.78759897148372 18.713275478486132 6.046576048148892 0 0 0
6985 216 16 0.415 16.783249121736254 18.710454302585664 6.041504017698314 0 0 0
6986 217 15 -0.83 11.311397836432961 13.599014413838516 -1.956716033303178 0 0 0
6987 217 16 0.415 12.17832287245945 13.217254302047206 -1.7917863288713656 0 0 0
6988 217 16 0.415 12.17932315620488 13.212812921563533 -1.7970995260927407 0 0 0
7013 226 15 -0.83 14.250919411665437 14.429462516845028 2.1991468608307505 0 0 0
7014 226 16 0.415 14.037483320169807 13.540605160281345 1.9058920667515962 0 0 0
7015 226 16 0.415 14.041326519566963 13.539643798393312 1.9005542018096149 0 0 0
7058 241 15 -0.83 16.80604654517014 12.44585032550589 0.8850114281711214 0 0 0
7059 241 16 0.415 16.845287463717867 12.686625666904458 -0.04352083951524291 0 0 0
7060 241 16 0.415 16.84502589302758 12.696057298276276 -0.04353115972002747 0 0 0
7181 282 15 -0.83 15.2033078284634 19.852673538998488 5.5546238825401355 0 0 0
7182 282 16 0.415 14.37062905723326 20.16100787366002 5.16375267995005 0 0 0
7183 282 16 0.415 14.37100459998519 20.15926121030147 5.157571632136279 0 0 0
7253 306 15 -0.83 12.011529311816345 16.87708666975336 1.3474714617407284 0 0 0
7254 306 16 0.415 12.3033574403478 17.03818090564194 2.2629548373570842 0 0 0
7255 306 16 0.415 12.310291632987814 17.033527634464157 2.263794253179883 0 0 0
7292 319 15 -0.83 12.821369503242227 19.999671924434924 1.7364597081653583 0 0 0
7293 319 16 0.415 13.157881128368972 20.168573389539024 0.8519316166379349 0 0 0
7294 319 16 0.415 13.15639412201937 20.175457137675725 0.8507338158546865 0 0 0
6959 208 15 -0.83 18.51518246266133 20.612708680596622 0.5898029558346622 0 0 0
6960 208 16 0.415 18.45061803346912 21.308873330832164 -0.06474865045199225 0 0 0
6961 208 16 0.415 18.457925098908458 21.309492114142323 -0.06771215211321965 0 0 0
6980 215 15 -0.83 22.01601926366031 16.0386827369336 2.321168309435374 0 0 0
6981 215 16 0.415 21.316095094277472 16.641329970870917 2.055666766114199 0 0 0
6982 215 16 0.415 21.31431341239476 16.639240814040573 2.0494719389615037 0 0 0
7226 297 15 -0.83 24.91439673602168 13.814426948496331 5.584413840994923 0 0 0
7227 297 16 0.415 24.269433883279778 13.615249713298253 4.901319278289073 0 0 0
7228 297 16 0.415 24.273313976812275 13.611535176867898 4.8960993614334285 0 0 0
6947 204 15 -0.83 30.942834800621604 21.468817676294847 4.969482985916345 0 0 0
6948 204 16 0.415 31.67667901003869 21.536656618512687 5.578891604688721 0 0 0
6949 204 16 0.415 31.67323980547948 21.54128965017757 5.586170501507419 0 0 0
6962 209 15 -0.83 27.503603423924226 11.591764540650168 3.3098968407479004 0 0 0
6963 209 16 0.415 28.187574688054017 12.15822265956068 2.94819392752117 0 0 0
6964 209 16 0.415 28.18809463857735 12.156112592380559 2.940665481622261 0 0 0
7145 270 15 -0.83 30.822721048752896 14.897394339533463 -0.1054188365556779 0 0 0
7146 270 16 0.415 30.80695494384975 15.886633160046912 -0.04031452130589895 0 0 0
7147 270 16 0.415 30.79681721951355 15.889424174980968 -0.043377209817712065 0 0 0
7220 295 15 -0.83 26.325682662033106 13.419905019933616 -1.2913792779961417 0 0 0
7221 295 16 0.415 25.65858947845638 14.05428013264603 -1.0283657198432086 0 0 0
7222 295 16 0.415 25.65661052183874 14.052153592443473 -1.0212056495112265 0 0 0
7247 304 15 -0.83 27.522927916559606 16.694908266039203 5.979803471665064 0 0 0
7248 304 16 0.415 26.78438796583771 16.563142235829247 5.381076272968288 0 0 0
7249 304 16 0.415 26.778597414740023 16.5629481026488 5.385364937319867 0 0 0
7250 305 15 -0.83 27.325963230469736 21.31221930002086 -1.848604632607735 0 0 0
7307 324 15 -0.83 30.63479909319836 17.355177798561396 0.27473453951194443 0 0 0
7308 324 16 0.415 30.4922863378954 18.288340635099548 0.5176545944528725 0 0 0
7309 324 16 0.415 30.4795565058343 18.287503105004273 0.5351541733272918 0 0 0
2214 1 1 0.0 16.07312997840723 13.886043943156182 14.915489862896537 0 0 0
2215 1 1 0.0 15.42720556487636 15.02042709215038 14.404874630411951 0 0 0
2218 1 1 0.0 16.02032789124424 16.280397753534352 14.561437426258275 0 0 0
2220 1 2 0.0 15.6401497062302 12.904830246123018 14.756233480315124 0 0 0
2221 1 2 0.0 14.52268379106587 14.913495487535771 13.813789641172404 0 0 0
2222 1 4 0.0 15.650273673443742 17.318848580687998 13.693175943362542 0 0 0
2226 1 6 0.0 16.266558454582395 18.11975587779049 13.654174322391546 0 0 0
4275 1 1 0.0 12.949058472182449 20.639004104951486 10.879377151082647 0 0 0
4276 1 1 0.0 12.044966696510178 19.573004702445235 11.051480070956677 0 0 0
4277 1 1 0.0 12.18828376599059 18.714424511489653 12.162757474408838 0 0 0
4278 1 1 0.0 14.00759270849635 20.819513793736572 11.777959632578934 0 0 0
4279 1 1 0.0 14.156461493956202 19.923573037299555 12.840017473575687 0 0 0
4280 1 1 0.0 13.196765310463554 18.94320765234536 13.112053764592924 0 0 0
4281 1 2 0.0 12.80149003845469 21.36011770544377 10.081293094225959 0 0 0
4282 1 2 0.0 11.477963374711472 17.911505020898318 12.324191269260593 0 0 0
4283 1 2 0.0 14.96490328103755 20.057200688066256 13.509736509274592 0 0 0
4285 1 3 -0.5 13.176145648644445 18.278069265934917 14.460635622352802 0 0 0
4289 1 4 0.0 12.621697159646521 17.214969840304118 14.669906355244041 0 0 0
5186 1 12 0.0 17.455846375214573 20.101212915045277 14.243405602829318 0 0 0
5190 1 4 0.0 17.89115662464029 19.016227384388955 13.884927498827103 0 0 0
5386 1 1 0.0 12.430939626459889 12.388071467476124 14.528178910226794 0 0 0
5389 1 1 0.0 11.812949550159574 13.64824155562518 14.729494952294663 0 0 0
5392 1 2 0.0 12.467231646404073 11.963557574572896 13.524790403279765 0 0 0
5395 1 3 -0.5 11.271342247638191 14.418899707366815 13.577764351648494 0 0 0
6787 125 9 0.0 18.032433760622897 13.095359700220936 12.245063406498383 0 0 0
6788 125 14 0.5 17.81343646508633 14.006420033186624 11.956750618092343 0 0 0
6983 216 15 -0.83 17.25388707256189 17.94869440065798 6.41972524965013 0 0 0
7112 259 15 -0.83 12.38059972748437 14.742901818577094 6.648431325638771 0 0 0
7113 259 16 0.415 12.67041023058476 15.165237602817074 7.455785382183321 0 0 0
7114 259 16 0.415 12.665595166375748 15.161693723682458 7.46190719391718 0 0 0
127 1 1 0.0 20.174708358254207 21.441090974018458 10.391437005850827 0 0 0
130 1 1 0.0 20.439865342212485 20.82435574371365 11.624128505219199 0 0 0
131 1 1 0.0 21.40879428166054 21.35962415427604 12.486050152436993 0 0 0
133 1 2 0.0 19.442883606886188 21.012349482858586 9.71449725978167 0 0 0
137 1 4 0.0 19.91766830521553 19.541991481478576 11.884619472103576 0 0 0
138 1 2 0.0 21.624538825927186 20.862603966666686 13.42849353958878 0 0 0
139 1 6 0.0 19.1185046462584 19.265829065467354 11.329745350124723 0 0 0
1401 1 1 0.0 21.280236736634553 14.914774850749568 12.786533315631472 0 0 0
1402 1 1 0.0 21.176391708570037 16.21385133104623 13.307426784314591 0 0 0
1403 1 1 0.0 22.122568340506703 16.67437140134421 14.237795536117707 0 0 0
1404 1 1 0.0 22.342454130321478 14.084505425815301 13.180952946732834 0 0 0
1405 1 1 0.0 23.255260270255384 14.5249656879249 14.156482018519403 0 0 0
1406 1 1 0.0 23.138471270794284 15.8162950904548 14.705542085398992 0 0 0
1407 1 2 0.0 20.5665527507067 14.5707984343351 12.043332718325898 0 0 0
1408 1 2 0.0 20.37301572830795 16.86716900382216 12.97929072420645 0 0 0
1409 1 2 0.0 22.049262349462325 17.689376576924616 14.613211063651029 0 0 0
1411 1 4 0.0 22.533082319251086 12.839102616379831 12.542436842760049 0 0 0
1412 1 2 0.0 24.075943387812995 13.87771671289475 14.453847583211724 0 0 0
1413 1 6 0.0 23.49128404780247 12.514964709357042 12.48660475182258 0 0 0
4159 1 1 0.0 24.95303317596915 19.47356584219944 11.389547673182907 0 0 0
4160 1 1 0.0 24.698706159976 19.606329414293224 12.774963755057728 0 0 0
4164 1 2 0.0 23.674601920300248 19.561451970365283 13.135966448944163 0 0 0
4165 1 3 -0.5 23.871743446563517 19.16039654640414 10.40058594002103 0 0 0
4169 1 4 0.0 22.729149887663255 18.84429700511364 10.677877866388538 0 0 0
5181 1 1 0.0 18.493819140204756 21.105954440396136 14.504569495725992 0 0 0
1164 1 1 0.0 32.25921130756669 17.86798315633714 12.302855354676623 0 0 0
1165 1 1 0.0 32.18488372364187 17.08553727437954 11.137028219976495 0 0 0
1170 1 2 0.0 31.768861972042757 18.83102859369336 12.34885864042114 0 0 0
1171 1 2 0.0 31.63672497189935 17.452887083080096 10.275734970376764 0 0 0
4156 1 1 0.0 26.27620513677413 19.536509178679815 10.913172988064828 0 0 0
4157 1 1 0.0 27.346862988340085 19.729331523910794 11.805498071102019 0 0 0
4158 1 1 0.0 27.07779682710692 19.824305379399714 13.17536288390939 0 0 0
4161 1 1 0.0 25.785366843649516 19.72165781027425 13.675697019189133 0 0 0
4162 1 2 0.0 26.470482652212535 19.405782246530592 9.851482432140255 0 0 0
4163 1 2 0.0 27.885748750631613 19.913242684290978 13.891065274585973 0 0 0
4167 1 12 0.0 28.77142893802195 19.782298701825212 11.340776094212837 0 0 0
4168 1 4 0.0 29.129088987381394 19.485579201075524 10.215274659096911 0 0 0
4171 1 7 0.0 29.65684612394131 20.17151167964023 12.288204309267241 0 0 0
4172 1 9 0.0 29.12976810002255 20.334570172362213 13.094598987767215 0 0 0
4547 1 1 0.0 27.81294597858075 13.917004724780407 13.748690839561148 0 0 0
4548 1 1 0.0 28.10616155143444 12.820549326196934 12.911462880471055 0 0 0
4549 1 1 0.0 29.422357704474887 12.315259486650161 12.87473092449747 0 0 0
4550 1 1 0.0 28.80954363233996 14.496681089201259 14.558048855798697 0 0 0
4551 1 1 0.0 30.112148648058493 13.950038628620964 14.522220378883976 0 0 0
4552 1 1 0.0 30.431235241395115 12.85035251752206 13.693047190942888 0 0 0
4553 1 2 0.0 26.80202979225871 14.314956863101388 13.77823671933073 0 0 0
4554 1 2 0.0 29.662495990237982 11.468524930024225 12.239899402658518 0 0 0
4557 1 10 0.0 31.775106696598677 12.155498401430407 13.75367888047432 0 0 0
4558 1 12 0.0 27.011607020235182 12.187717476408713 12.091923476782856 0 0 0
4559 1 4 0.0 25.849715145552132 12.554876435000184 12.129881592125436 0 0 0
6931 197 9 0.0 29.74699555387344 16.854528592179083 13.115684594836994 0 0 0
6932 197 14 0.5 29.237108386449048 16.812603399771138 12.283082060019858 0 0 0
43 1 1 0.0 12.016451750034319 20.85850470948562 21.044314089090555 0 0 0
46 1 1 0.0 12.098831402689223 19.74458421280825 21.900831942478582 0 0 0
49 1 2 0.0 12.708436654606254 20.95737820085633 20.21355991869774 0 0 0
53 1 11 0.0 13.187680086346656 18.837213653068297 21.748066962126398 0 0 0
55 1 6 0.0 14.083248157778693 19.279701230077457 21.585004410899558 0 0 0
284 1 1 0.0 17.56391209288208 11.557009680318865 20.025021169957775 0 0 0
291 1 11 0.0 17.222283216107332 12.753750412381583 20.72536916481777 0 0 0
293 1 6 0.0 17.98686411376474 13.411982019015733 20.815808473851437 0 0 0
1050 1 6 0.0 13.623538010189598 12.471402034476856 23.50197599828104 0 0 0
2213 1 1 0.0 17.27738425865684 14.028365946259264 15.627717132927808 0 0 0
2216 1 1 0.0 17.788089557207613 15.307262500535888 15.889405642631097 0 0 0
2217 1 1 0.0 17.132283672397968 16.4378783538726 15.399277059537273 0 0 0
2219 1 2 0.0 17.80922150424091 13.15742032938772 15.994107672679524 0 0 0
2224 1 2 0.0 17.556586420370994 17.415854171980218 15.588984862174692 0 0 0
2451 1 1 0.0 13.847662864027946 16.910380297352557 18.36710890542922 0 0 0
2452 1 1 0.0 14.047482072161921 18.20034222195876 17.85217395376745 0 0 0
2453 1 1 0.0 12.956203755892037 18.939359424197118 17.372874989554656 0 0 0
2454 1 1 0.0 12.56801971363299 16.32689774878929 18.34514402431233 0 0 0
2455 1 1 0.0 11.486351715950763 17.065692188939153 17.850126847066193 0 0 0
2456 1 1 0.0 11.670591798909085 18.380682004591815 17.40153598568993 0 0 0
2457 1 2 0.0 14.685343231775839 16.38205963133545 18.80944455175042 0 0 0
2458 1 2 0.0 15.042652790762011 18.63254855199126 17.839605446734556 0 0 0
2459 1 2 0.0 13.108028525626255 19.931994997956668 16.960200108187422 0 0 0
2461 1 11 0.0 12.322102696573502 15.116578837976204 19.030356714021284 0 0 0
2463 1 6 0.0 12.4425188205355 15.177177774830842 20.03279562086489 0 0 0
2502 1 11 0.0 18.16322498772833 18.55472298460505 23.36566429252743 0 0 0
2504 1 2 0.0 16.777543334358406 20.827769831152153 23.460917275518977 0 0 0
5387 1 1 0.0 12.947539298157762 11.69572453639356 15.652717188004257 0 0 0
5388 1 1 0.0 12.823692490672661 12.261155349460603 16.907222284795917 0 0 0
5390 1 1 0.0 11.682363900495924 14.187564403604224 16.024253622168832 0 0 0
5391 1 1 0.0 12.179983708631854 13.47891821839468 17.128380439016016 0 0 0
5393 1 2 0.0 13.235897604796925 11.708164406142584 17.740016891421984 0 0 0
5396 1 10 0.0 12.006720434566146 13.85263131024683 18.57095052877079 0 0 0
5400 1 4 0.0 11.928824668179384 12.964897144676867 19.398039662517824 0 0 0
6315 1 4 0.0 18.272816323414542 15.180805403725731 18.692963315430994 0 0 0
6481 1 1 0.0 15.720111144242336 17.484832000385243 21.909034061692044 0 0 0
6482 1 1 0.0 14.529570554202444 16.753728940318062 21.72586714348314 0 0 0
6483 1 1 0.0 14.631032677500935 15.356858555849314 21.52708905286682 0 0 0
6484 1 1 0.0 16.970274189682566 16.84066895953248 21.989730607807026 0 0 0
6485 1 1 0.0 17.046723351345065 15.45922263556115 21.724822892617276 0 0 0
6486 1 1 0.0 15.883908406111864 14.702106129468042 21.460840771830995 0 0 0
6487 1 2 0.0 15.678141504618122 18.560921552518927 22.030408410599417 0 0 0
6488 1 2 0.0 13.726735388320884 14.77833774935412 21.376544842755127 0 0 0
6489 1 2 0.0 18.02092728002543 14.979586648063822 21.735393110361027 0 0 0
6490 1 10 0.0 18.22391978691809 17.603029906997083 22.35022115443674 0 0 0
6491 1 10 0.0 15.960075451116962 13.237439375666058 21.060891273710304 0 0 0
6492 1 10 0.0 13.176828351241106 17.445220616095796 21.76422185852557 0 0 0
6493 1 4 0.0 12.132444062401122 16.816734363692348 21.780787627640514 0 0 0
6495 1 4 0.0 14.952164192175012 12.570003586717622 20.893933561748955 0 0 0
6513 1 1 0.0 11.769613712706878 13.904921356773835 23.174321871253845 0 0 0
6518 1 2 0.0 12.26593275197977 13.093136972823991 22.656092473244566 0 0 0
6676 37 13 0.0 16.868782765035764 18.743080033026835 19.116448446890892 0 0 0
6777 120 9 0.0 15.228285542774408 13.55490636745928 18.29817307673981 0 0 0
6778 120 14 0.5 15.002298779952724 14.181317981984408 17.58323492919438 0 0 0
6801 132 9 0.0 15.844854584485248 20.20571041091036 19.409987092211015 0 0 0
6802 132 14 0.5 15.916506117974171 21.171062280837905 19.318174745083574 0 0 0
6935 1 9 0.0 16.180843415916783 19.77957764906344 15.919754990781353 0 0 0
6936 1 7 0.0 16.40527104495052 20.35960534081 15.147305943677233 0 0 0
281 1 1 0.0 18.547917797135263 11.648066860752444 19.022192014339243 0 0 0
287 1 2 0.0 18.990466989400083 12.607642121591512 18.77638451114275 0 0 0
505 1 1 0.0 21.8116363137865 19.098067065876727 17.527745051487102 0 0 0
506 1 1 0.0 21.55174549116675 18.97806861872 18.89308801996796 0 0 0
507 1 1 0.0 22.411216317074615 19.577561186587896 19.824950717857654 0 0 0
508 1 1 0.0 22.927425681659226 19.814055207544893 17.095281266974105 0 0 0
509 1 1 0.0 23.799161615559832 20.4291553392646 18.027139293279227 0 0 0
510 1 1 0.0 23.53156602639598 20.325689963311675 19.411587504708393 0 0 0
511 1 2 0.0 21.159586088001035 18.62781989394216 16.797341805346747 0 0 0
512 1 2 0.0 20.676049767512982 18.43129801962004 19.223634739095896 0 0 0
513 1 2 0.0 22.16819752732716 19.50060700972433 20.87824135259366 0 0 0
514 1 11 0.0 24.269381021968286 21.063141464546142 20.392241958210754 0 0 0
515 1 4 0.0 23.134228369363544 19.85962213181473 15.705558844082276 0 0 0
516 1 2 0.0 24.660216821419663 20.996585050946088 17.68123064988654 0 0 0
517 1 6 0.0 22.525984870422608 20.434192583271077 15.140072222298555 0 0 0
848 1 2 0.0 24.740245774547166 12.886303022174282 23.14702552788338 0 0 0
1373 1 1 0.0 20.0748097505841 21.292297046509713 21.051214442822843 0 0 0
1374 1 1 0.0 20.444363601668922 21.36210332028017 22.39779728139449 0 0 0
1379 1 2 0.0 19.55405637653936 20.403107033553642 20.720988071014244 0 0 0
1380 1 2 0.0 20.205859103695765 20.535325738081873 23.056680050284942 0 0 0
1410 1 11 0.0 24.11338323550623 16.291253314494156 15.624070325062275 0 0 0
1414 1 6 0.0 24.9658146231753 16.59340272285216 15.168443052224784 0 0 0
1487 1 1 0.0 22.481037636312053 12.334271562055937 20.476609331664502 0 0 0
1489 1 1 0.0 20.89888745239092 12.023740273900104 22.295491252127555 0 0 0
1490 1 1 0.0 21.866927467923418 12.817234247748198 21.64833565010174 0 0 0
1493 1 2 0.0 23.25080333180592 12.912066412805972 19.973422309567574 0 0 0
1494 1 11 0.0 22.302504112703353 14.025432733493819 22.25941791614242 0 0 0
1496 1 2 0.0 20.430270239485033 12.382740952170192 23.205674670788117 0 0 0
1498 1 6 0.0 22.562494473338496 13.932075956398341 23.233846428593168 0 0 0
2223 1 11 0.0 19.013383964220782 15.459388517254736 16.56189971202799 0 0 0
2225 1 6 0.0 19.81479774580841 15.680160887419525 15.982902537143527 0 0 0
2506 1 6 0.0 19.031408144156988 19.019606288624075 23.60380728742138 0 0 0
2514 1 2 0.0 24.76103996092009 13.569541900772537 17.01648119615628 0 0 0
5180 1 1 0.0 18.943605665054235 20.870463977120558 15.792524708022633 0 0 0
5184 1 2 0.0 18.951670594660797 19.840010581443465 16.148785868727416 0 0 0
5185 1 10 0.0 19.12114799913495 21.558965015238037 18.13861521942461 0 0 0
5189 1 4 0.0 18.60156669389715 20.5574111157529 18.59939378098177 0 0 0
6301 1 1 0.0 23.25693638274831 15.782317209084672 19.314659440702176 0 0 0
6302 1 1 0.0 23.009999487965104 15.910054573698925 17.928703325823648 0 0 0
6303 1 1 0.0 21.686002309715604 15.708480814646455 17.49054010822213 0 0 0
6304 1 1 0.0 22.23734483610464 15.428078585075404 20.21665290943743 0 0 0
6305 1 1 0.0 20.92616270371271 15.256083251652484 19.75129612790876 0 0 0
6306 1 1 0.0 20.634317840990178 15.426660131096513 18.389339063598428 0 0 0
6307 1 2 0.0 24.254972651590833 15.945091624379518 19.708472627220722 0 0 0
6308 1 2 0.0 21.443991896589587 15.834325999063891 16.454792409522646 0 0 0
6309 1 2 0.0 20.13290756339591 15.019427863956773 20.45478888540464 0 0 0
6310 1 10 0.0 22.553256443050255 15.260128709936845 21.67225757152251 0 0 0
6311 1 10 0.0 19.206327449623235 15.341649674311942 17.923398459643 0 0 0
6312 1 10 0.0 24.154241017703853 16.34752397079594 17.02111050989575 0 0 0
6313 1 4 0.0 25.185823314391243 16.759312232526405 17.525049521590404 0 0 0
6314 1 4 0.0 23.074375606902326 16.16178887460947 22.30553239043476 0 0 0
6377 1 1 0.0 24.631812903646107 21.629253952353523 22.799461147480006 0 0 0
6387 1 10 0.0 24.59031402959897 20.60906417971626 21.67615790712404 0 0 0
6388 1 4 0.0 24.60016469700128 19.416457274663443 21.933265105936677 0 0 0
6494 1 4 0.0 19.2952947689862 17.32697551793224 21.837583305136125 0 0 0
6728 89 13 0.0 20.16899854195375 13.130264402756078 15.780604388520816 0 0 0
6843 153 9 0.0 19.753289697409503 11.516508698185248 15.021095448576652 0 0 0
656 1 2 0.0 32.05821713078479 12.472965057837689 17.19195738044627 0 0 0
657 1 6 0.0 32.33502263631799 13.521314747035568 15.124292786771731 0 0 0
701 1 1 0.0 30.739325989837273 16.966569312182916 18.156047474626334 0 0 0
702 1 1 0.0 31.24989781924579 18.095988135020406 18.811082699743714 0 0 0
703 1 1 0.0 30.608720316436273 19.332667846637822 18.66604153540603 0 0 0
704 1 1 0.0 29.671077980110592 17.07356844776837 17.24898393216189 0 0 0
705 1 1 0.0 29.02409035040753 18.317543578505184 17.11287690919871 0 0 0
706 1 1 0.0 29.45470910345177 19.426706947162533 17.868348815802864 0 0 0
707 1 2 0.0 31.215666901103027 16.005359983259986 18.313362591113158 0 0 0
708 1 2 0.0 32.129218037857584 18.005898850332404 19.44213554621519 0 0 0
709 1 2 0.0 30.97563332712843 20.19750930739558 19.212330978906817 0 0 0
710 1 11 0.0 28.669274430670235 20.603649727991623 17.88588493090329 0 0 0
711 1 11 0.0 29.400110945465865 15.927961865681976 16.445647805758476 0 0 0
712 1 2 0.0 28.17331972420896 18.42582163287301 16.45359559496262 0 0 0
713 1 6 0.0 30.096658970662585 15.201970085472714 16.55407996129618 0 0 0
714 1 6 0.0 28.495142624309242 21.018072912808652 16.977890698196134 0 0 0
841 1 1 0.0 26.04171835574813 14.61422597854116 23.05534690827556 0 0 0
842 1 1 0.0 25.635829295851796 13.35988034968541 23.53671408441552 0 0 0
844 1 1 0.0 27.178079103249125 15.251983405642706 23.592955319148196 0 0 0
847 1 2 0.0 25.448499979950228 15.105370653694811 22.291973286732897 0 0 0
851 1 11 0.0 27.511412646688456 16.58099426292408 23.208123593622876 0 0 0
2507 1 1 0.0 26.338521421955544 13.742417982609089 18.489322169847632 0 0 0
2508 1 1 0.0 25.76692519171049 13.27002806743064 17.293740676267234 0 0 0
2509 1 1 0.0 26.474136806938027 12.374063507602798 16.47555508489364 0 0 0
2510 1 1 0.0 27.613595374255237 13.305124329648894 18.887488113243545 0 0 0
2511 1 1 0.0 28.35765251748712 12.499727733986695 18.012477281408767 0 0 0
2512 1 1 0.0 27.783208706600185 12.005238639530708 16.830203501049603 0 0 0
2513 1 2 0.0 25.767352845971484 14.396890284309368 19.136937829239127 0 0 0
2515 1 2 0.0 26.002330923815883 11.977528292238036 15.581716540305168 0 0 0
2517 1 11 0.0 28.089795345242308 13.584060988003193 20.200277110305066 0 0 0
2518 1 2 0.0 29.353102676473284 12.170897682412926 18.300195700850214 0 0 0
2519 1 6 0.0 28.078959893739857 14.566655123663882 20.442628490506007 0 0 0
2969 1 1 0.0 31.21936007214589 18.359402730024055 22.868046606482935 0 0 0
2970 1 1 0.0 31.051479562890552 19.738288725232813 23.061063488256966 0 0 0
2975 1 2 0.0 31.119550764975358 17.943268075954705 21.869674021844645 0 0 0
2976 1 2 0.0 30.81818630001552 20.37608063021533 22.21372077633719 0 0 0
2979 1 11 0.0 31.735616479331394 16.135122574587488 23.65699136217964 0 0 0
2981 1 6 0.0 31.303925026786064 15.830461229165422 22.793548158361425 0 0 0
3497 1 1 0.0 32.42854676950482 13.739403057695018 22.1728613456784 0 0 0
3501 1 2 0.0 32.07133795232785 14.591842198000421 21.601653161702874 0 0 0
3506 1 4 0.0 31.76739262893072 13.171596875873405 19.414541779260134 0 0 0
4166 1 3 -0.5 25.697035853037047 19.60060468898926 15.167437561157765 0 0 0
4170 1 4 0.0 26.444860772715757 20.18171271233283 15.93288608976728 0 0 0
4555 1 2 0.0 30.88036272737837 14.383896224856997 15.15112851229237 0 0 0
4556 1 10 0.0 28.495730979498795 15.705552084192993 15.41291487705856 0 0 0
4560 1 4 0.0 27.548805318111896 16.4354837766228 15.169424598534576 0 0 0
5911 1 1 0.0 27.728182129021153 19.45658478380889 22.910100919287206 0 0 0
5912 1 1 0.0 27.98750789721485 20.83785532703705 22.76565780341513 0 0 0
5913 1 1 0.0 28.1514934157925 21.3628575912947 21.467399516947637 0 0 0
5914 1 1 0.0 27.71722578597684 18.598975874669833 21.7894165178459 0 0 0
5915 1 1 0.0 27.86760386780122 19.15773508702557 20.504927492695387 0 0 0
5916 1 1 0.0 28.062902624720852 20.54009892578155 20.329574966933354 0 0 0
5919 1 2 0.0 27.778699298927872 18.516691005025994 19.635126979538857 0 0 0
5920 1 10 0.0 27.515617108545474 17.108446586574498 21.92241341281203 0 0 0
5921 1 10 0.0 28.01463571890366 21.184020382919627 18.96664359187596 0 0 0
5924 1 4 0.0 27.38875266401913 16.4025066291261 20.93651521388788 0 0 0
6595 1 10 0.0 28.58611349084364 12.720864839820115 21.183250096595348 0 0 0
6599 1 4 0.0 29.12231009659169 13.189801707726993 22.17066714129855 0 0 0
6726 87 13 0.0 30.593957198094714 20.21633284330866 15.066612388051087 0 0 0
265 1 6 0.0 15.885955103413178 11.267431918986468 29.526054224033075 0 0 0
1040 1 1 0.0 17.60068839825294 12.014819843407068 25.444434498325027 0 0 0
1041 1 1 0.0 16.58427400389741 12.763206696998939 24.83096415759883 0 0 0
1042 1 1 0.0 15.322959204238847 12.186158100092522 24.627511853687807 0 0 0
1046 1 11 0.0 14.263269675328571 12.962164276128561 24.113948901574656 0 0 0
1048 1 2 0.0 16.76075084087394 13.77972944611829 24.496116955255776 0 0 0
2493 1 1 0.0 14.78083047998664 19.316755731188845 25.79127568796412 0 0 0
2494 1 1 0.0 15.459676145299824 18.093580843158225 25.888302120780466 0 0 0
2495 1 1 0.0 16.605910705599438 17.855486073933964 25.11709510553148 0 0 0
2496 1 1 0.0 15.23380193718041 20.312905016322 24.910805749293175 0 0 0
2497 1 1 0.0 16.40230304672822 20.07636782443261 24.149042066230137 0 0 0
2498 1 1 0.0 17.070332860644513 18.838883558010984 24.228320941613422 0 0 0
2499 1 2 0.0 13.887937972841016 19.48298761442323 26.387372155158268 0 0 0
2500 1 2 0.0 15.085171952219227 17.323262235334294 26.549441451173777 0 0 0
2501 1 2 0.0 17.117464125320087 16.90105729138583 25.191540675661237 0 0 0
2503 1 11 0.0 14.471562804000472 21.514364020110772 24.8169824547769 0 0 0
2505 1 6 0.0 13.940300844689357 21.75222754854604 25.64590940561141 0 0 0
2720 1 1 0.0 11.319830615724566 13.391075354691257 29.199360405525344 0 0 0
2723 1 2 0.0 11.652408795604767 11.280208764681225 28.850081945149014 0 0 0
2727 1 11 0.0 12.712113474377373 13.6688132943883 29.12919864463004 0 0 0
2729 1 6 0.0 13.301405223364723 12.86289172618648 29.298232859477743 0 0 0
2894 1 11 0.0 11.80659950334565 20.18011311479586 30.258194444206946 0 0 0
2896 1 2 0.0 12.086954849139985 18.691328315336964 28.05849426732648 0 0 0
2897 1 6 0.0 11.321099815435321 16.759271023288044 26.78486004258026 0 0 0
2898 1 6 0.0 11.988446458203509 19.784692713008436 31.173094558186776 0 0 0
2913 1 1 0.0 16.363157317814757 15.549975288398914 32.45041499579759 0 0 0
2914 1 1 0.0 17.551307609787113 16.11690229007967 31.96971756922476 0 0 0
2917 1 1 0.0 17.413191171576635 13.36008275968329 32.45137179987664 0 0 0
2920 1 2 0.0 17.60396619766251 17.1844574496505 31.77643994110462 0 0 0
3643 1 4 0.0 14.728645345233154 12.03431537135507 31.608071523716905 0 0 0
4632 1 1 0.0 15.204426111459346 21.55092961135703 29.950110563305675 0 0 0
4633 1 1 0.0 16.440805487097258 21.323177315386076 30.5868605790369 0 0 0
4634 1 1 0.0 16.45294191575788 20.843122478141098 31.912795282599777 0 0 0
4635 1 1 0.0 13.991592864811238 21.243787569362173 30.595831703845654 0 0 0
4636 1 1 0.0 14.022462559197818 20.87328111324359 31.95436581120631 0 0 0
4638 1 2 0.0 15.1858018829171 21.854361469796796 28.90751305978332 0 0 0
4639 1 2 0.0 17.397769776525664 20.623733537993964 32.40141941039387 0 0 0
4640 1 2 0.0 13.097780409855279 20.63191482947001 32.47119984327409 0 0 0
4641 1 10 0.0 12.742652882208246 21.08337460963068 29.76536854143668 0 0 0
4643 1 12 0.0 17.734602210979418 21.485610979869026 29.836479481974212 0 0 0
4645 1 4 0.0 12.678322933545441 21.52166977967709 28.627984852335647 0 0 0
6226 1 1 0.0 15.653850848339058 15.928125107538055 28.775684918757786 0 0 0
6227 1 1 0.0 17.056358012965905 15.882816424712354 28.707971575850795 0 0 0
6228 1 1 0.0 17.698958637168683 14.628081617865956 28.757471794707996 0 0 0
6229 1 1 0.0 14.883929303234861 14.753044113117074 28.816632730574053 0 0 0
6230 1 1 0.0 15.546899531899632 13.510594159514454 28.83375563834089 0 0 0
6231 1 1 0.0 16.95434218789419 13.437340472962395 28.858252943988276 0 0 0
6232 1 2 0.0 15.155315729735962 16.889522345431118 28.74722066935753 0 0 0
6234 1 2 0.0 14.964035888156985 12.59600735244946 28.82916996951325 0 0 0
6235 1 10 0.0 13.379255919846495 14.846498322885447 28.817675584048207 0 0 0
6236 1 10 0.0 17.66578953706234 12.115491610332 28.99370383970813 0 0 0
6237 1 10 0.0 17.827608186180477 17.16748996153253 28.546603514835684 0 0 0
6238 1 4 0.0 17.33181044513505 18.255351931043798 28.79052469336786 0 0 0
6239 1 4 0.0 12.809401898110668 15.89125064520798 28.551609339747344 0 0 0
6515 1 1 0.0 11.854999010147477 15.701748642247058 24.78613950681312 0 0 0
6516 1 1 0.0 12.485632017686783 14.630884967528345 24.140436427579658 0 0 0
6519 1 2 0.0 12.414950747147078 16.260042529395445 25.529951795969772 0 0 0
6521 1 10 0.0 13.855832286432246 14.200998799946326 24.58461380945836 0 0 0
6525 1 4 0.0 14.469206455818723 14.806585838197067 25.449143623449157 0 0 0
6690 51 13 0.0 11.764763999523481 18.359216170227192 32.25118889978709 0 0 0
6795 129 9 0.0 11.650783521606051 12.146285299895638 25.34802228405839 0 0 0
6796 129 14 0.5 12.150867717860816 11.53629275056757 25.91174600792601 0 0 0
6825 144 9 0.0 13.651697040480872 18.33450819873908 30.329036148320718 0 0 0
6826 144 14 0.5 14.377067617713466 17.991023214575893 30.88010381112345 0 0 0
1047 1 11 0.0 18.92335737793123 12.486896780318663 25.579453066803094 0 0 0
1049 1 6 0.0 19.60249526808971 11.749674584615219 25.718987674384948 0 0 0
1065 1 1 0.0 21.53829284060961 19.36668583988983 25.535639824537782 0 0 0
1066 1 1 0.0 20.265902876954137 19.85911411860524 25.86454282917491 0 0 0
1067 1 1 0.0 19.449721079644046 19.152406661053096 26.76145892859699 0 0 0
1068 1 1 0.0 22.020637154266694 18.191083386470503 26.1362330914578 0 0 0
1069 1 1 0.0 21.256870056236163 17.57326771660159 27.142479220213776 0 0 0
1070 1 1 0.0 19.93242777097184 17.97789773669805 27.374880540699873 0 0 0
1071 1 2 0.0 22.13517005982853 19.878511045668667 24.785498044154135 0 0 0
1072 1 2 0.0 19.88779220584011 20.75307212619158 25.37727571191938 0 0 0
1073 1 2 0.0 18.425883175771165 19.482839502536333 26.902612318566053 0 0 0
1074 1 11 0.0 19.076738230125912 17.015192814306197 27.969723128687164 0 0 0
1075 1 11 0.0 23.261948730913943 17.671089755875165 25.680444267510577 0 0 0
1076 1 2 0.0 21.627501712127764 16.68053347259888 27.636803367171506 0 0 0
1077 1 6 0.0 23.8935903494998 18.39470062972678 25.359373281986485 0 0 0
1078 1 6 0.0 19.36877690568117 16.05948240105872 27.80524766245184 0 0 0
1499 1 1 0.0 21.917690120495923 18.189647923408717 31.13851336398393 0 0 0
1500 1 1 0.0 21.855681396679582 19.531212189724425 30.715173925414035 0 0 0
1501 1 1 0.0 21.403380876047176 20.528527380567915 31.5950712971972 0 0 0