LAMMPS data file via write_data, version 29 Oct 2020, timestep = 508

7840 atoms
16 atom types
7773 bonds
19 bond types
11445 angles
24 angle types
19495 dihedrals
42 dihedral types

11.246593 53.753407 xlo xhi
11.246593 53.753407 ylo yhi
-2.5 67.5 zlo zhi

Masses

1 12.01
2 1.008
3 12.01
4 16
5 14.01
6 1.008
7 16
8 14.01
9 1.008
10 12.01
11 14.01
12 12.01
13 1.008
14 16
15 15.9994
16 1.008

Pair Coeffs # lj/cut/coul/long/omp

1 0.086 3.39967
2 0.015 2.59964
3 0.086 3.39967
4 0.21 2.95992
5 0.17 3.25
6 0.0157 1.06908
7 0.2104 3.06647
8 0.17 3.25
9 0 0
10 0.086 3.39967
11 0.17 3.25
12 0.086 3.39967
13 0.0157 1.06908
14 0.2104 3.06647
15 0.102 3.188
16 0 0

Atoms # full

6984 216 16 0.415 16.72545403603891 18.734184570416307 6.042261547853025 0 0 0
6985 216 16 0.415 16.723957945497833 18.733173471122974 6.040671087105439 0 0 0
6986 217 15 -0.83 11.326975741557424 13.616942652425484 -1.9932232112058834 0 0 0
6987 217 16 0.415 12.162120691615682 13.189283949478433 -1.7781506954364297 0 0 0
6988 217 16 0.415 12.162523299313818 13.18739886221493 -1.7802578212005102 0 0 0
7013 226 15 -0.83 14.17498136004551 14.460544563002388 2.171133106235387 0 0 0
7014 226 16 0.415 14.084544484083244 13.534480789160567 1.9239104408055476 0 0 0
7015 226 16 0.415 14.0863152245444 13.53415272736968 1.9217375784160564 0 0 0
7058 241 15 -0.83 16.737770392024657 12.51125385447484 0.9021153887247536 0 0 0
7059 241 16 0.415 16.855449816336872 12.624229230792848 -0.04729402213096438 0 0 0
7060 241 16 0.415 16.85552891271468 12.628541504677687 -0.047880964749442395 0 0 0
7181 282 15 -0.83 15.239807035214385 19.774959323851583 5.5387606557928075 0 0 0
7182 282 16 0.415 14.419446952710512 20.15291098462808 5.183110390109339 0 0 0
7183 282 16 0.415 14.419547422874349 20.148861686491742 5.167647938242208 0 0 0
7253 306 15 -0.83 11.958047839223267 16.929830662653895 1.331347056644739 0 0 0
7254 306 16 0.415 12.344577960311339 17.01147944717445 2.2245259865311113 0 0 0
7255 306 16 0.415 12.347034882890847 17.009506796087397 2.22450646581211 0 0 0
7292 319 15 -0.83 12.857011732086658 19.957468500449124 1.7480525193026875 0 0 0
7293 319 16 0.415 13.150221269916656 20.17960681920494 0.8587158006381866 0 0 0
7294 319 16 0.415 13.149541037049913 20.182367326161057 0.8584051617696635 0 0 0
6959 208 15 -0.83 18.486880409767622 20.569766208740464 0.5503038465539417 0 0 0
6960 208 16 0.415 18.471474478806645 21.324667313078656 -0.04130025499193252 0 0 0
6961 208 16 0.415 18.474796900123707 21.32493577129402 -0.04247997445008217 0 0 0
6980 215 15 -0.83 22.021445664003053 16.027771438533655 2.2984799733456116 0 0 0
6981 215 16 0.415 21.31684239916359 16.64263969700922 2.0744255189131913 0 0 0
6982 215 16 0.415 21.316019918037846 16.641868697046405 2.071931394247246 0 0 0
7226 297 15 -0.83 24.908563349144718 13.841761751656545 5.576083477865647 0 0 0
7227 297 16 0.415 24.273325711782626 13.612133364843682 4.892279931056124 0 0 0
7228 297 16 0.415 24.275040159653443 13.6105010859368 4.890102042714173 0 0 0
6947 204 15 -0.83 30.9613752027317 21.437410872373494 4.934977948424303 0 0 0
6948 204 16 0.415 31.658691958431522 21.555065378520897 5.580354433028289 0 0 0
6949 204 16 0.415 31.656857204420277 21.557220556643866 5.5835237241680895 0 0 0
6962 209 15 -0.83 27.543237792947835 11.564018832065395 3.324104988440579 0 0 0
6963 209 16 0.415 28.170730669305545 12.17470800890562 2.9307318056407845 0 0 0
6964 209 16 0.415 28.170920419186025 12.173730902815038 2.927377710985594 0 0 0
7145 270 15 -0.83 30.81171111610711 14.929776664949923 -0.15981001939544823 0 0 0
7146 270 16 0.415 30.789100439639586 15.918129701778598 -0.018778579130658404 0 0 0
7147 270 16 0.415 30.784933465492347 15.91916494754099 -0.01915785673272598 0 0 0
7220 295 15 -0.83 26.32312322280221 13.410388769487156 -1.273840844810294 0 0 0
7221 295 16 0.415 25.657011926227057 14.05446171333947 -1.0309818590473476 0 0 0
7222 295 16 0.415 25.656068056890977 14.053567249784052 -1.0278129924350339 0 0 0
7247 304 15 -0.83 27.551106580909657 16.667205491358825 5.959038200105967 0 0 0
7248 304 16 0.415 26.77083400863392 16.563288470303096 5.408060458214304 0 0 0
7249 304 16 0.415 26.76855150761853 16.56315395941307 5.410005582192803 0 0 0
7250 305 15 -0.83 27.309684033277183 21.34511546170645 -1.832646825497102 0 0 0
7307 324 15 -0.83 30.640591798429202 17.324555027944413 0.2897080059508591 0 0 0
7308 324 16 0.415 30.49412915201898 18.264895219084362 0.5048753031640701 0 0 0
7309 324 16 0.415 30.490172023274038 18.26478180914678 0.5104255810869949 0 0 0
2214 1 1 0.0 16.084360478061576 13.88135714035371 14.897024950841809 0 0 0
2215 1 1 0.0 15.43871994886755 15.012381437278652 14.384184648267107 0 0 0
2218 1 1 0.0 16.026439878480225 16.271445052663562 14.548845814819934 0 0 0
2220 1 2 0.0 15.656243202971094 12.906547104852951 14.721895533477687 0 0 0
2221 1 2 0.0 14.539085151341945 14.903199464401116 13.786160126737958 0 0 0
2222 1 4 0.0 15.646421154519997 17.31116228413674 13.687136552534596 0 0 0
2226 1 6 0.0 16.254891969310673 18.117628318280772 13.66367979427027 0 0 0
4275 1 1 0.0 12.935571524429353 20.63707236219775 10.871107957938577 0 0 0
4276 1 1 0.0 12.030094214224116 19.572162223180438 11.050547373312297 0 0 0
4277 1 1 0.0 12.159738097568354 18.719881264921863 12.169918605107851 0 0 0
4278 1 1 0.0 13.984145320733521 20.82550832993577 11.775922832684861 0 0 0
4279 1 1 0.0 14.118320730926538 19.932785776989128 12.840452265904336 0 0 0
4280 1 1 0.0 13.166665524685769 18.948058159583226 13.11732546093997 0 0 0
4281 1 2 0.0 12.801491205794001 21.349321466806995 10.062935816185032 0 0 0
4282 1 2 0.0 11.448676620959755 17.91899639268226 12.337981795407982 0 0 0
4283 1 2 0.0 14.919846560311544 20.06916635007462 13.508605271449674 0 0 0
4285 1 3 -0.5 13.16694012763987 18.271932663393553 14.461923749190941 0 0 0
4289 1 4 0.0 12.609958933576797 17.211753123630213 14.679804481948848 0 0 0
5186 1 12 0.0 17.45624934204742 20.12776357897122 14.242220958284905 0 0 0
5190 1 4 0.0 17.786664631470565 19.01217181190449 13.886828770768188 0 0 0
5386 1 1 0.0 12.514257771111897 12.374799840951667 14.585637486178067 0 0 0
5389 1 1 0.0 11.835251095953552 13.560389870768342 14.783174086278702 0 0 0
5392 1 2 0.0 12.588492068072153 11.938089475000972 13.629697073115622 0 0 0
5395 1 3 -0.5 11.312965153340556 14.34691768986937 13.621042932409743 0 0 0
6787 125 9 0.0 18.020066701553564 13.146023751237808 12.227083859757519 0 0 0
6788 125 14 0.5 17.79408290576838 14.028425267273906 11.863801645250177 0 0 0
6983 216 15 -0.83 17.226403181297506 17.985457194660917 6.410773665859801 0 0 0
7112 259 15 -0.83 12.389059949704173 14.721219028743178 6.653648220470378 0 0 0
7113 259 16 0.415 12.660521905052983 15.177174070875832 7.449846506929842 0 0 0
7114 259 16 0.415 12.65828117174879 15.175599674238757 7.452704741638158 0 0 0
127 1 1 0.0 20.178286414807022 21.430975225517074 10.382638902756453 0 0 0
130 1 1 0.0 20.448226991557856 20.813018141901985 11.615051951247368 0 0 0
131 1 1 0.0 21.432859469557894 21.341501219456752 12.463759697506369 0 0 0
133 1 2 0.0 19.4348370057005 21.011280579431755 9.712484454164686 0 0 0
137 1 4 0.0 19.885615766071485 19.553006059070913 11.907739304983759 0 0 0
138 1 2 0.0 21.65398717945373 20.845529327352622 13.405001481611857 0 0 0
139 1 6 0.0 19.117253883838917 19.261370612358363 11.317187219153928 0 0 0
1401 1 1 0.0 21.285563769238937 14.917638020784615 12.785789858678589 0 0 0
1402 1 1 0.0 21.17985222457582 16.216388624403297 13.307322446387117 0 0 0
1403 1 1 0.0 22.12322459324656 16.676676749560322 14.240602515927288 0 0 0
1404 1 1 0.0 22.34607800858843 14.086556613784076 13.183183423551103 0 0 0
1405 1 1 0.0 23.258018894925133 14.527881848705153 14.159238306270801 0 0 0
1406 1 1 0.0 23.139859051763295 15.819358007550912 14.70779445497267 0 0 0
1407 1 2 0.0 20.572905454916246 14.573310807898086 12.041733012884572 0 0 0
1408 1 2 0.0 20.376553257505332 16.869273582146985 12.978214600391919 0 0 0
1409 1 2 0.0 22.04762666301657 17.690723408552547 14.61877363590484 0 0 0
1411 1 4 0.0 22.532193430875065 12.837478864275287 12.550120968493378 0 0 0
1412 1 2 0.0 24.07808134323334 13.88083398288132 14.458864912848183 0 0 0
1413 1 6 0.0 23.487881455646068 12.505153388996945 12.500477063969866 0 0 0
4159 1 1 0.0 24.964362058436254 19.454545391224265 11.40396012448752 0 0 0
4160 1 1 0.0 24.718350932227388 19.575781458287466 12.790771717360466 0 0 0
4164 1 2 0.0 23.697992912707967 19.51851992932045 13.159569140442573 0 0 0
4165 1 3 -0.5 23.876247901874603 19.13405194268303 10.42548928134174 0 0 0
4169 1 4 0.0 22.729603627939373 18.84545084467638 10.71629963391562 0 0 0
5181 1 1 0.0 18.51314539242234 21.112017284195634 14.534493849190232 0 0 0
1164 1 1 0.0 32.2608614628233 17.869583205685498 12.294049652200664 0 0 0
1165 1 1 0.0 32.1789662538263 17.08577546166951 11.129763052263392 0 0 0
1170 1 2 0.0 31.768656338629143 18.83163107534763 12.342276780582935 0 0 0
1171 1 2 0.0 31.623329647094046 17.450774870198188 10.272091138367477 0 0 0
4156 1 1 0.0 26.283232485416892 19.53491021122139 10.919093385211887 0 0 0
4157 1 1 0.0 27.358703724148565 19.72940178360377 11.805580687829032 0 0 0
4158 1 1 0.0 27.098687896383826 19.808780826517246 13.180190316358344 0 0 0
4161 1 1 0.0 25.807001776782247 19.692717247670974 13.686288615365928 0 0 0
4162 1 2 0.0 26.47096747235727 19.41683239643619 9.85466066699516 0 0 0
4163 1 2 0.0 27.911620608012857 19.899507214538005 13.890881345558508 0 0 0
4167 1 12 0.0 28.777081468303695 19.799485328481225 11.322288436083062 0 0 0
4168 1 4 0.0 29.124979342498353 19.494172632765753 10.195650847628043 0 0 0
4171 1 7 0.0 29.670891484814888 20.195646991890026 12.258277278829514 0 0 0
4172 1 9 0.0 29.156185342055434 20.334723984739714 13.076385868122165 0 0 0
4547 1 1 0.0 27.81562261846367 13.919315635615984 13.746804542677834 0 0 0
4548 1 1 0.0 28.104992465496167 12.820962672552065 12.910762714216158 0 0 0
4549 1 1 0.0 29.419191689583847 12.311109165353487 12.874584583992315 0 0 0
4550 1 1 0.0 28.813802676438275 14.497295950971518 14.55532631271862 0 0 0
4551 1 1 0.0 30.11524682355857 13.94918002209897 14.517248691233233 0 0 0
4552 1 1 0.0 30.429667294829123 12.845907336088343 13.690848053790562 0 0 0
4553 1 2 0.0 26.805601002484448 14.319074447297591 13.777547013899968 0 0 0
4554 1 2 0.0 29.6561129778956 11.460949043299292 12.242965285111632 0 0 0
4557 1 10 0.0 31.769561887809175 12.145568443182324 13.755637597117941 0 0 0
4558 1 12 0.0 27.007936152134043 12.190571022427854 12.093004992566755 0 0 0
4559 1 4 0.0 25.846952246838207 12.560252694474096 12.13343273307555 0 0 0
6931 197 9 0.0 29.730100931771634 16.853469549030322 13.088372240053026 0 0 0
6932 197 14 0.5 29.210843976387967 16.833465867185346 12.260920761531612 0 0 0
6843 153 9 0.0 19.76583996209125 11.499642682755415 14.97944128832202 0 0 0
43 1 1 0.0 12.024889609667039 20.859128653406977 21.04225852111905 0 0 0
46 1 1 0.0 12.105643852883878 19.74512471184082 21.89863758945202 0 0 0
49 1 2 0.0 12.719152470487774 20.959175085630932 20.21337582364803 0 0 0
53 1 11 0.0 13.192963477982701 18.837027582289352 21.747930526446215 0 0 0
55 1 6 0.0 14.091429707396943 19.27789582312299 21.596692890952404 0 0 0
284 1 1 0.0 17.560610699185823 11.558367128833957 20.026294004699064 0 0 0
291 1 11 0.0 17.219089489192978 12.755115475356789 20.72516857994454 0 0 0
293 1 6 0.0 17.982111131966967 13.415678738363187 20.811946700727425 0 0 0
1050 1 6 0.0 13.623014576716306 12.468319953141181 23.503647750484806 0 0 0
2213 1 1 0.0 17.27870939654616 14.015935354862055 15.62488351873399 0 0 0
2216 1 1 0.0 17.787793947723877 15.295961305317629 15.890036145759566 0 0 0
2217 1 1 0.0 17.135278016619004 16.426982918137043 15.39270832114745 0 0 0
2219 1 2 0.0 17.798104309849734 13.136927074798054 15.994615246207749 0 0 0
2224 1 2 0.0 17.55925930885364 17.404679491490484 15.584974069491771 0 0 0
2451 1 1 0.0 13.851881319498167 16.915412302091212 18.367332511313588 0 0 0
2452 1 1 0.0 14.052594736445998 18.20791013720515 17.859032596758613 0 0 0
2453 1 1 0.0 12.961359882623402 18.951663120175287 17.38557348207237 0 0 0
2454 1 1 0.0 12.571152237770619 16.335091223885687 18.344599265670826 0 0 0
2455 1 1 0.0 11.492003120747968 17.074081737525574 17.84659559639413 0 0 0
2456 1 1 0.0 11.675912874501213 18.390918708281845 17.405414237779556 0 0 0
2457 1 2 0.0 14.688700546899344 16.383743958066603 18.807453647704907 0 0 0
2458 1 2 0.0 15.048670224336991 18.638142624542315 17.84817527774004 0 0 0
2459 1 2 0.0 13.113973870285399 19.948591228437667 16.983817494485837 0 0 0
2461 1 11 0.0 12.319380773879697 15.131272652673786 19.037004657604523 0 0 0
2463 1 6 0.0 12.430367734783943 15.20443358406261 20.04218161512609 0 0 0
2502 1 11 0.0 18.160756841037955 18.5541467576716 23.36695472154276 0 0 0
2504 1 2 0.0 16.77684766015205 20.826974855658996 23.46398040597977 0 0 0
5387 1 1 0.0 13.116893982149502 11.821781384298315 15.668290722316895 0 0 0
5388 1 1 0.0 12.85974379742889 12.239314606879265 16.967726073158428 0 0 0
5390 1 1 0.0 11.698289003892626 14.14704914859787 16.051182092197177 0 0 0
5391 1 1 0.0 12.153259203722063 13.427152405509053 17.169969675838544 0 0 0
5393 1 2 0.0 13.25004096542959 11.718034918363648 17.86029401160001 0 0 0
5396 1 10 0.0 11.9906047613961 13.860757429603249 18.59349009572241 0 0 0
5400 1 4 0.0 11.91053921614454 12.992837222242166 19.434735381388226 0 0 0
6315 1 4 0.0 18.27496501976293 15.171552099073192 18.69783151506032 0 0 0
6481 1 1 0.0 15.719851008171263 17.483217613162203 21.91095295565273 0 0 0
6482 1 1 0.0 14.529394411307571 16.753420613042262 21.723093865637214 0 0 0
6483 1 1 0.0 14.629395512876524 15.357672187977746 21.519644450189933 0 0 0
6484 1 1 0.0 16.969296934132583 16.8384208774462 21.992422785016732 0 0 0
6485 1 1 0.0 17.044770224698993 15.457338214216152 21.726179186274337 0 0 0
6486 1 1 0.0 15.881593150591895 14.702291247364657 21.457019925365902 0 0 0
6487 1 2 0.0 15.678541960297084 18.558984197006335 22.03473875988705 0 0 0
6488 1 2 0.0 13.724965722884816 14.780802768047247 21.36353261378951 0 0 0
6489 1 2 0.0 18.01846298486552 14.976763561765353 21.73913657435078 0 0 0
6490 1 10 0.0 18.222625855365607 17.601177765088735 22.35280999559471 0 0 0
6491 1 10 0.0 15.956385999059252 13.238386950067726 21.056846091621395 0 0 0
6492 1 10 0.0 13.177980069851046 17.44551558623923 21.760842819912195 0 0 0
6493 1 4 0.0 12.132519966862874 16.818596706533135 21.776860651135937 0 0 0
6495 1 4 0.0 14.94846851541145 12.571526764868011 20.887217908046384 0 0 0
6513 1 1 0.0 11.770142307861837 13.899858371295275 23.177099522169296 0 0 0
6518 1 2 0.0 12.267554650474827 13.090203996883519 22.656665333349373 0 0 0
6676 37 13 0.0 16.868559716779178 18.74373653523629 19.11655285677144 0 0 0
6777 120 9 0.0 15.223676460339176 13.568058576967788 18.28296734319012 0 0 0
6778 120 14 0.5 15.01934668744037 14.186357353439849 17.555702166719726 0 0 0
6801 132 9 0.0 15.844642095676614 20.202486796557753 19.410445133279367 0 0 0
6802 132 14 0.5 15.899245377572411 21.155698832307543 19.219557210643956 0 0 0
6935 1 9 0.0 16.327063136009 19.707257137380946 15.810613582198707 0 0 0
6936 1 7 0.0 16.40340980429207 20.383247373443414 15.100012546173355 0 0 0
281 1 1 0.0 18.540734989523905 11.65003068166569 19.02015994700603 0 0 0
287 1 2 0.0 18.985888112883977 12.608925328029402 18.776730183706654 0 0 0
505 1 1 0.0 21.80002794749854 19.09404516722226 17.539859423861103 0 0 0
506 1 1 0.0 21.546118374861607 18.96874665799085 18.90716203037184 0 0 0
507 1 1 0.0 22.407993903004577 19.56718964379648 19.837281462121812 0 0 0
508 1 1 0.0 22.91244458286115 19.817049697469937 17.104455565501322 0 0 0
509 1 1 0.0 23.784502691284235 20.42932732111645 18.035559870245546 0 0 0
510 1 1 0.0 23.524888927140275 20.317473991656165 19.419890797861274 0 0 0
511 1 2 0.0 21.14240694236323 18.626336747586166 16.812732095518417 0 0 0
512 1 2 0.0 20.672987674548317 18.420122762023603 19.242458385650092 0 0 0
513 1 2 0.0 22.169602832603665 19.489167746667462 20.891868304434453 0 0 0
514 1 11 0.0 24.2672866141466 21.052774251237484 20.396451087042745 0 0 0
515 1 4 0.0 23.118468742950196 19.890932807014142 15.714984824139327 0 0 0
516 1 2 0.0 24.638598450972307 21.004977827799905 17.686844203004124 0 0 0
517 1 6 0.0 22.482093354310567 20.449218191188084 15.163278405441178 0 0 0
848 1 2 0.0 24.74556812225818 12.885412958229947 23.134713586535284 0 0 0
1373 1 1 0.0 20.076152250779117 21.29285186531004 21.060261626791732 0 0 0
1374 1 1 0.0 20.441995508494166 21.367688656142064 22.407611706251373 0 0 0
1379 1 2 0.0 19.56114541769186 20.400333111589156 20.72868124884452 0 0 0
1380 1 2 0.0 20.207509349785465 20.540825290136745 23.06767494159065 0 0 0
1410 1 11 0.0 24.11465954185241 16.295839400716275 15.62512185500064 0 0 0
1414 1 6 0.0 24.96741984454953 16.59651666471753 15.169016430901069 0 0 0
1487 1 1 0.0 22.48330137684354 12.33410962480853 20.481510104470438 0 0 0
1489 1 1 0.0 20.901358338054596 12.02310754782088 22.300312535453944 0 0 0
1490 1 1 0.0 21.86824476433313 12.817549747252325 21.65271295618648 0 0 0
1493 1 2 0.0 23.253092571692168 12.91195858584782 19.978370927497995 0 0 0
1494 1 11 0.0 22.299038345790972 14.028429605892079 22.26242960749639 0 0 0
1496 1 2 0.0 20.43324554870964 12.381615261751929 23.210866694851564 0 0 0
1498 1 6 0.0 22.541469922446645 13.941180976841759 23.241933595062527 0 0 0
2223 1 11 0.0 19.011891365973625 15.450847624058957 16.565220626234172 0 0 0
2225 1 6 0.0 19.814235730842785 15.66732940237653 15.986046958632082 0 0 0
2506 1 6 0.0 19.02594414901015 19.027700001272766 23.598779777171234 0 0 0
2514 1 2 0.0 24.761300828919385 13.570159805391889 17.020043707811162 0 0 0
5180 1 1 0.0 18.991609447208436 20.88229288350474 15.81491571722755 0 0 0
5184 1 2 0.0 18.989250315509324 19.856577510783023 16.181299935276353 0 0 0
5185 1 10 0.0 19.128086624019556 21.56894436911849 18.151074426038686 0 0 0
5189 1 4 0.0 18.6162827467677 20.555987790975326 18.597320995730826 0 0 0
6301 1 1 0.0 23.259471738304764 15.787578146410462 19.31469111343701 0 0 0
6302 1 1 0.0 23.010432847291003 15.916566090885825 17.929271212805695 0 0 0
6303 1 1 0.0 21.685969123802565 15.712642871209905 17.492124537755224 0 0 0
6304 1 1 0.0 22.24177340554039 15.428925062636527 20.217084205404053 0 0 0
6305 1 1 0.0 20.93039887552975 15.254659441036129 19.75284655902451 0 0 0
6306 1 1 0.0 20.635763585176303 15.425769319482656 18.391405458985083 0 0 0
6307 1 2 0.0 24.257813139938136 15.95239719537639 19.707149248695554 0 0 0
6308 1 2 0.0 21.44215846832908 15.83963109205224 16.456863537012115 0 0 0
6309 1 2 0.0 20.13903858430173 15.01545649807353 20.45757422175802 0 0 0
6310 1 10 0.0 22.557686920358453 15.260494974773259 21.672739881922322 0 0 0
6311 1 10 0.0 19.206826639390812 15.335327848350882 17.926902473351046 0 0 0
6312 1 10 0.0 24.1544092208009 16.355331871081592 17.021779226671327 0 0 0
6313 1 4 0.0 25.186084043744877 16.767427861220945 17.525356434384992 0 0 0
6314 1 4 0.0 23.070301697295807 16.165328146360995 22.30846970397229 0 0 0
6377 1 1 0.0 24.626512913502214 21.619016728385176 22.799659253183883 0 0 0
6387 1 10 0.0 24.592346258679626 20.597758223924036 21.678098784690505 0 0 0
6388 1 4 0.0 24.608389619752348 19.404910913620434 21.934142294599276 0 0 0
6494 1 4 0.0 19.292955125736132 17.329912851203662 21.835481393695606 0 0 0
6728 89 13 0.0 20.16829150450896 13.131042933597177 15.780656082918496 0 0 0
6770 116 14 0.5 28.877476920572345 21.28302012514619 32.27238363827838 0 0 0
656 1 2 0.0 32.0393223842106 12.455935971256233 17.191891748414136 0 0 0
657 1 6 0.0 32.330333446075976 13.517676127385508 15.119335956841507 0 0 0
701 1 1 0.0 30.736419546163713 16.963978230900185 18.166170866601252 0 0 0
702 1 1 0.0 31.242784029115263 18.09451420545103 18.822910079654807 0 0 0
703 1 1 0.0 30.601929758975704 19.33070973128347 18.67329868455517 0 0 0
704 1 1 0.0 29.671439711106775 17.06932067744058 17.254720241938724 0 0 0
705 1 1 0.0 29.0232361429067 18.312661929389314 17.11628463641596 0 0 0
706 1 1 0.0 29.450757735221977 19.42303822140014 17.87169207795825 0 0 0
707 1 2 0.0 31.214714099422487 16.00379029999288 18.32472575870544 0 0 0
708 1 2 0.0 32.11906167862187 18.0062320623081 19.458406641727805 0 0 0
709 1 2 0.0 30.966184273426613 20.196825165386482 19.21939887532618 0 0 0
710 1 11 0.0 28.665837889199274 20.600330016607597 17.886424235688757 0 0 0
711 1 11 0.0 29.4054466390955 15.924486832411864 16.44799430339957 0 0 0
712 1 2 0.0 28.17459943609902 18.4201818810956 16.454140009630134 0 0 0
713 1 6 0.0 30.103420462202294 15.19964412218561 16.55577350769448 0 0 0
714 1 6 0.0 28.502097211530984 21.02024185021259 16.97898517523324 0 0 0
841 1 1 0.0 26.043079359136605 14.615787371658834 23.053975461395773 0 0 0
842 1 1 0.0 25.6386958075687 13.35917588738497 23.5295597314836 0 0 0
844 1 1 0.0 27.178253681972596 15.252503993068315 23.59452780023493 0 0 0
847 1 2 0.0 25.450606183265894 15.108778034956542 22.29119323868966 0 0 0
851 1 11 0.0 27.51190275005235 16.580907637997363 23.20919883926474 0 0 0
2507 1 1 0.0 26.33601108608902 13.737026122063664 18.496261333234976 0 0 0
2508 1 1 0.0 25.767760224531223 13.271437251799979 17.296325888425383 0 0 0
2509 1 1 0.0 26.478980843933915 12.383466081509606 16.47247730427632 0 0 0
2510 1 1 0.0 27.613490079456152 13.303846710774504 18.891422223271626 0 0 0
2511 1 1 0.0 28.358691356759987 12.501498206514565 18.014540722866776 0 0 0
2512 1 1 0.0 27.78634520663665 12.010568152075646 16.829822568666184 0 0 0
2513 1 2 0.0 25.76137246564193 14.384278584202466 19.148260740523284 0 0 0
2515 1 2 0.0 26.010840959239186 11.994306459108621 15.573391035943839 0 0 0
2517 1 11 0.0 28.092730304902208 13.58397801793975 20.20284091558696 0 0 0
2518 1 2 0.0 29.353832404175765 12.171985058766325 18.30256613945112 0 0 0
2519 1 6 0.0 28.088926522951642 14.567494174479679 20.442041721345255 0 0 0
2969 1 1 0.0 31.220440235651203 18.360068809566165 22.865714791731325 0 0 0
2970 1 1 0.0 31.05684243948357 19.739210027224154 23.061452224774822 0 0 0
2975 1 2 0.0 31.11936760000687 17.946321745104715 21.866474655031233 0 0 0
2976 1 2 0.0 30.825511725627 20.379779195646826 22.215622277931327 0 0 0
2979 1 11 0.0 31.73414847765253 16.133262625808335 23.653680535937596 0 0 0
2981 1 6 0.0 31.30287677185661 15.827673853798624 22.790256472195217 0 0 0
3497 1 1 0.0 32.42752956813868 13.737761639858547 22.175261532300087 0 0 0
3501 1 2 0.0 32.06880922816487 14.58973951612591 21.604485922160464 0 0 0
3506 1 4 0.0 31.776904732796517 13.186223367822784 19.41578975073506 0 0 0
4166 1 3 -0.5 25.7048145742286 19.568758641036112 15.176615987252843 0 0 0
4170 1 4 0.0 26.431605085402865 20.17078897283603 15.945864701252654 0 0 0
4555 1 2 0.0 30.884661591329763 14.382628298874812 15.145177867517898 0 0 0
4556 1 10 0.0 28.50075263589923 15.702906286106787 15.41494906875274 0 0 0
4560 1 4 0.0 27.549494275754114 16.429151693841202 15.177755162696117 0 0 0
5911 1 1 0.0 27.741046554731152 19.45301270124941 22.911776074906225 0 0 0
5912 1 1 0.0 27.9935668380594 20.8352945968504 22.76660109950506 0 0 0
5913 1 1 0.0 28.148200758221858 21.36175047709515 21.467906809098235 0 0 0
5914 1 1 0.0 27.718272418054063 18.597406543140142 21.78996104519885 0 0 0
5915 1 1 0.0 27.861278808590423 19.157082667806407 20.505003171318567 0 0 0
5916 1 1 0.0 28.057166447034838 20.53955772225262 20.32972947472973 0 0 0
5919 1 2 0.0 27.767875464143803 18.516422730254035 19.6353033402602 0 0 0
5920 1 10 0.0 27.509583421898345 17.108220554290718 21.923377148959748 0 0 0
5921 1 10 0.0 28.013279922452053 21.184201373954284 18.96662898879935 0 0 0
5924 1 4 0.0 27.36734446250655 16.404089592685324 20.938123504594884 0 0 0
6595 1 10 0.0 28.59163938609027 12.720774879062354 21.184457209277234 0 0 0
6599 1 4 0.0 29.134087729743005 13.189866765030613 22.168500247221118 0 0 0
6726 87 13 0.0 30.593803659146747 20.21767873552981 15.066963495520753 0 0 0
265 1 6 0.0 15.887829208334232 11.268401232345685 29.5203085489863 0 0 0
1040 1 1 0.0 17.60373041754717 12.01068458295477 25.439337809875553 0 0 0
1041 1 1 0.0 16.58722043380012 12.759592582860007 24.826385873884853 0 0 0
1042 1 1 0.0 15.324744681411925 12.183931145028957 24.625261341601075 0 0 0
1046 1 11 0.0 14.26545427110822 12.960429346087647 24.111783280347982 0 0 0
1048 1 2 0.0 16.76392679526304 13.776119971281457 24.491732842404872 0 0 0
2493 1 1 0.0 14.777801201055972 19.315382963217335 25.791415482928464 0 0 0
2494 1 1 0.0 15.455442531136397 18.091306266215298 25.887449135041678 0 0 0
2495 1 1 0.0 16.60115736199553 17.852263714289666 25.11583153256316 0 0 0
2496 1 1 0.0 15.231650901679703 20.311996702092905 24.91153434904924 0 0 0
2497 1 1 0.0 16.4009860018213 20.075390177402685 24.151459713231038 0 0 0
2498 1 1 0.0 17.067808319358626 18.837178216165338 24.229778888322315 0 0 0
2499 1 2 0.0 13.884841877537614 19.481354745474018 26.387456547347938 0 0 0
2500 1 2 0.0 15.080096627223114 17.320662558494963 26.547621093814236 0 0 0
2501 1 2 0.0 17.11013113748964 16.896105293759195 25.187713188650132 0 0 0
2503 1 11 0.0 14.470395621351232 21.51418601147226 24.815806268864545 0 0 0
2505 1 6 0.0 13.940221297037649 21.75424604715479 25.644678086471284 0 0 0
2720 1 1 0.0 11.31814693205504 13.391368670000636 29.198354848542355 0 0 0
2723 1 2 0.0 11.650658094549296 11.279466905885863 28.856575809464307 0 0 0
2727 1 11 0.0 12.71058120842331 13.668283814300969 29.128574317471994 0 0 0
2729 1 6 0.0 13.299224050175328 12.86160660419173 29.296303201419295 0 0 0
2894 1 11 0.0 11.804486669508204 20.182014976944778 30.256716027218243 0 0 0
2896 1 2 0.0 12.086600383881857 18.693144226901964 28.056162838637018 0 0 0
2897 1 6 0.0 11.323166098478637 16.766954310060427 26.78234449946661 0 0 0
2898 1 6 0.0 11.978358648888277 19.79576956730816 31.177051665463498 0 0 0
2913 1 1 0.0 16.36234720937131 15.549847316816482 32.449001645132874 0 0 0
2914 1 1 0.0 17.55066842146056 16.11777170776502 31.969584017143028 0 0 0
2917 1 1 0.0 17.413859638580732 13.360856715066198 32.44954410082022 0 0 0
2920 1 2 0.0 17.60302185316152 17.18558739477381 31.777520938579727 0 0 0
3643 1 4 0.0 14.735347442269397 12.026765030706166 31.614643560258525 0 0 0
4632 1 1 0.0 15.20534123012156 21.539966826227875 29.94644305003461 0 0 0
4633 1 1 0.0 16.44097329023771 21.315164805736238 30.585105562883335 0 0 0
4634 1 1 0.0 16.4518760047144 20.839530214756458 31.912572402604134 0 0 0
4635 1 1 0.0 13.991943241497601 21.237562820213586 30.592556569961303 0 0 0
4636 1 1 0.0 14.021086630677543 20.87075633221564 31.952143191699346 0 0 0
4638 1 2 0.0 15.18756044618104 21.838384530611528 28.9024580573722 0 0 0
4639 1 2 0.0 17.396150272106798 20.621092525584157 32.4026738616552 0 0 0
4640 1 2 0.0 13.095861834064658 20.631122858654102 32.46892438436639 0 0 0
4641 1 10 0.0 12.743840389457912 21.07956638503907 29.76128989793597 0 0 0
4643 1 12 0.0 17.73441833979632 21.48006684502115 29.834959895496816 0 0 0
4645 1 4 0.0 12.68195622675941 21.514037054257752 28.622229076042395 0 0 0
6226 1 1 0.0 15.652269751211943 15.928332329508061 28.76949754783386 0 0 0
6227 1 1 0.0 17.054965187333853 15.883679083592968 28.70521834016723 0 0 0
6228 1 1 0.0 17.69813659624891 14.629406395397172 28.755162466413108 0 0 0
6229 1 1 0.0 14.882887108235494 14.753175403029884 28.816539900490916 0 0 0
6230 1 1 0.0 15.54672872971141 13.511408085296093 28.839966099622732 0 0 0
6231 1 1 0.0 16.954390015149052 13.438560343779784 28.858658781988087 0 0 0
6232 1 2 0.0 15.153148735259784 16.889096334966485 28.734909897328812 0 0 0
6234 1 2 0.0 14.964008030276712 12.596887070596903 28.84187388170286 0 0 0
6235 1 10 0.0 13.37803079870247 14.845675858435484 28.816314085292504 0 0 0
6236 1 10 0.0 17.66695955028036 12.116707661552077 28.988877242381022 0 0 0
6237 1 10 0.0 17.82696873683653 17.16803081907322 28.546872356277472 0 0 0
6238 1 4 0.0 17.330955203682375 18.256017439519017 28.789895796663973 0 0 0
6239 1 4 0.0 12.807948728550993 15.889439396905907 28.546899696347353 0 0 0
6515 1 1 0.0 11.853803995417369 15.694644738007822 24.79110388869168 0 0 0
6516 1 1 0.0 12.486131333432557 14.626425494140097 24.14260863047134 0 0 0
6519 1 2 0.0 12.413684359261655 16.252758578116495 25.535096058393023 0 0 0
6521 1 10 0.0 13.859181515955717 14.200067361886223 24.581332692660705 0 0 0
6525 1 4 0.0 14.475755685062756 14.80843663326287 25.441579586914894 0 0 0
6690 51 13 0.0 11.777728424237901 18.357407301888315 32.24523841956053 0 0 0
6795 129 9 0.0 11.637617739499285 12.16228987157756 25.333313437419747 0 0 0
6796 129 14 0.5 12.143462443542687 11.551094022599846 25.890917333462934 0 0 0
6825 144 9 0.0 13.655276671510844 18.332833956953195 30.331690383709933 0 0 0
6826 144 14 0.5 14.39863294518849 17.992976343256288 30.860843104370307 0 0 0
1047 1 11 0.0 18.925561655820676 12.484418674711163 25.581165095364362 0 0 0
1049 1 6 0.0 19.604148895236495 11.7478091374292 25.72623515544252 0 0 0
1065 1 1 0.0 21.5362942480237 19.36542003576338 25.535374490273874 0 0 0
1066 1 1 0.0 20.264386425738824 19.857208527593926 25.86744739059451 0 0 0
1067 1 1 0.0 19.449639332850385 19.148951027443157 26.764168328417984 0 0 0
1068 1 1 0.0 22.01982770687083 18.188831039932623 26.13340754780913 0 0 0
1069 1 1 0.0 21.256689108450974 17.568554028658724 27.138652506063632 0 0 0
1070 1 1 0.0 19.933275544336738 17.973945781669197 27.375348157226718 0 0 0
1071 1 2 0.0 22.132236925250023 19.879760518564005 24.78622290688236 0 0 0
1072 1 2 0.0 19.885509649863877 20.75288302537902 25.384046703104 0 0 0
1073 1 2 0.0 18.42640763688799 19.479680658577852 26.908284406491003 0 0 0
1074 1 11 0.0 19.078817277443637 17.01414614428825 27.976236878307162 0 0 0
1075 1 11 0.0 23.26363579859169 17.671961711367167 25.68069738413868 0 0 0
1076 1 2 0.0 21.62818032344891 16.675115009447033 27.630998760770666 0 0 0
1077 1 6 0.0 23.898392162590767 18.39772774684643 25.37062199945956 0 0 0
1078 1 6 0.0 19.371952769284714 16.057740290360723 27.81790436003305 0 0 0
1499 1 1 0.0 21.91473497068181 18.18219640482294 31.141201102646413 0 0 0