Untitled

34 atoms
35 bonds
53 angles
96 dihedrals
0 impropers

9 atom types
35 bond types
53 angle types
96 dihedral types

 -4.7300000   3.4020000 xlo xhi
 -2.5700000   5.5930000 ylo yhi
 -1.4900000   5.2860000 zlo zhi
  0.0000000   0.0000000   0.0000000 xy xz yz

Masses

1 12.01
2 1.008
3 12.01
4 16
5 14.01
6 1.008
7 16
8 14.01
9 1.008
10 12.01
11 14.01
12 12.01
13 1.008
14 16
15 15.9994000 # OW (oxygen in water)
16  1.0080000 # HW (hydrogen in water)

Atoms

     1      1      1 -0.15810000   -1.3200000    1.8100000   -0.4800000
     2      1      1 0.00800000   -2.3000000    0.8600000   -0.1700000
     3      1      1 -0.00600000    0.0200000    1.4800000   -0.2900000
     4      1      1 -0.17660000    0.4000000    0.2200000    0.1900000
     5      1      1 -0.00600000   -0.5900000   -0.7100000    0.4900000
     6      1      1 -0.15810000   -1.9500000   -0.4100000    0.3100000
     7      1      2 0.18400000   -3.3500000    1.1100000   -0.3100000
     8      1      2 0.17800000    0.7800000    2.2200000   -0.5400000
     9      1      2 0.17800000   -0.3100000   -1.6900000    0.8600000
    10      1      10 0.68070000    1.8500000   -0.1500000    0.3900000
    11      1      4 -0.57610000    2.1700000   -1.2500000    0.8200000
    12      1      11 -0.46510000    2.7700000    0.7900000    0.1000000
    13      1      1 -0.22300000    4.9000000    1.7700000    0.7600000
    14      1      1 0.09960000    4.1900000    0.6900000    0.2300000
    15      1      1 -0.06700000    6.2900000    1.7100000    0.8800000
    16      1      1 -0.21500000    6.9800000    0.5700000    0.4600000
    17      1      1 0.16860000    6.2800000   -0.5100000   -0.0900000
    18      1      1 -0.21600000    4.8900000   -0.4400000   -0.2000000
    19      1      2 0.13000000    4.3700000    2.6600000    1.0900000
    20      1      2 0.13100000    6.8400000    2.5500000    1.3000000
    21      1      2 0.13400000    8.0600000    0.5300000    0.5500000
    22      1      2 0.17000000    4.3500000   -1.2800000   -0.6400000
    23      1      6 0.32150000    2.4400000    1.7000000   -0.1700000
    24      1      10 0.65170000   -1.6600000    3.1900000   -1.0000000
    25      1      12 0.65170000   -2.9600000   -1.4700000    0.6600000
    26      1      4 -0.54250000   -2.6700000   -2.5700000    1.0800000
    27      1      7 -0.60360000   -4.2200000   -1.1500000    0.4800000
    28      1      4 -0.54250000   -0.8200000    4.0200000   -1.2700000
    30      1      8 -0.82320000    6.9500000   -1.6200000   -0.5100000
    31      1      6 0.39480000    7.9200000   -1.7200000   -0.2400000
    32      1      6 0.39480000    6.4200000   -2.4500000   -0.7200000
    34      1      9 0.45300000   -4.7300000   -1.9400000    0.7500000
    35      1      1 -0.15810000   -1.3200000    1.8100000   -0.4800000
    36      1      1 0.00800000   -2.3000000    0.8600000   -0.1700000
    37      1      1 -0.00600000    0.0200000    1.4800000   -0.2900000
    38      1      1 -0.17660000    0.4000000    0.2200000    0.1900000
    39      1      1 -0.00600000   -0.5900000   -0.7100000    0.4900000
    40      1      1 -0.15810000   -1.9500000   -0.4100000    0.3100000
    41      1      2 0.18400000   -3.3500000    1.1100000   -0.3100000
    42      1      2 0.17800000    0.7800000    2.2200000   -0.5400000
    43      1      2 0.17800000   -0.3100000   -1.6900000    0.8600000
    44      1      10 0.68070000    1.8500000   -0.1500000    0.3900000
    45      1      4 -0.57610000    2.1700000   -1.2500000    0.8200000
    46      1      11 -0.46510000    2.7700000    0.7900000    0.1000000
    47      1      1 -0.22300000    4.9000000    1.7700000    0.7600000
    48      1      1 0.09960000    4.1900000    0.6900000    0.2300000
    49      1      1 -0.06700000    6.2900000    1.7100000    0.8800000
    50      1      1 -0.21500000    6.9800000    0.5700000    0.4600000
    51      1      1 0.16860000    6.2800000   -0.5100000   -0.0900000
    52      1      1 -0.21600000    4.8900000   -0.4400000   -0.2000000
    53      1      2 0.13000000    4.3700000    2.6600000    1.0900000
    54      1      2 0.13100000    6.8400000    2.5500000    1.3000000
    55      1      2 0.13400000    8.0600000    0.5300000    0.5500000
    56      1      2 0.17000000    4.3500000   -1.2800000   -0.6400000
    57      1      6 0.32150000    2.4400000    1.7000000   -0.1700000
    58      1      12 0.65170000   -1.6600000    3.1900000   -1.0000000
    59      1      12 0.65170000   -2.9600000   -1.4700000    0.6600000
    60      1      4 -0.54250000   -2.6700000   -2.5700000    1.0800000
    61      1      7 -0.60360000   -4.2200000   -1.1500000    0.4800000
    62      1      4 -0.54250000   -0.8200000    4.0200000   -1.2700000
    63      1      7 -0.60360000   -2.9200000    3.4600000   -1.1500000
    64      1      11 -0.82320000    6.9500000   -1.6200000   -0.5100000
    65      1      6 0.39480000    7.9200000   -1.7200000   -0.2400000
    67      1      9 0.45300000   -2.9600000    4.3800000   -1.4900000
    68      1      9 0.45300000   -4.7300000   -1.9400000    0.7500000

Bonds

     1      1 1 2
     2      2 1 3
     3      3 1 24
     4      4 2 6
     5      5 2 7
     6      6 3 4
     7      7 3 8
     8      8 4 5
     9      9 4 10
    10     10 5 6
    11     11 5 9
    12     12 6 25
    13     13 10 11
    14     14 10 12
    15     15 12 14
    16     16 12 23
    17     17 13 14
    18     18 13 15
    19     19 13 19
    20     20 14 18
    21     21 15 16
    22     22 15 20
    23     23 16 17
    24     24 16 21
    25     25 17 18
    26     26 17 30
    27     27 18 22
    28     28 24 28
    30     30 25 26
    31     31 25 27
    32     32 27 34
    34     34 30 31
    35     35 30 32
    36      1 35 36
    37      2 35 37
    38      3 35 58
    39      4 36 40
    40      5 36 41
    41      6 37 38
    42      7 37 42
    43      8 38 39
    44      9 38 44
    45     10 39 40
    46     11 39 43
    47     12 40 59
    48     13 44 45
    49     14 44 46
    50     15 46 48
    51     16 46 57
    52     17 47 48
    53     18 47 49
    54     19 47 53
    55     20 48 52
    56     21 49 50
    57     22 49 54
    58     23 50 51
    59     24 50 55
    60     25 51 52
    61     26 51 64
    62     27 52 56
    63     28 58 62
    64     29 58 63
    65     30 59 60
    66     31 59 61
    67     32 61 68
    68     33 63 67
    69     34 64 65
    71     1  24 64

Angles

     1      1 1 2 6
     2      2 1 2 7
     3      3 1 3 4
     4      4 1 3 8
     5      5 1 24 28
     6      6 1 24 29
     7      7 2 1 3
     8      8 2 1 24
     9      9 2 6 5
    10     10 2 6 25
    11     11 3 1 24
    12     12 3 4 5
    13     13 3 4 10
    14     14 4 3 8
    15     15 4 5 6
    16     16 4 5 9
    17     17 4 10 11
    18     18 4 10 12
    19     19 5 4 10
    20     20 5 6 25
    21     21 6 2 7
    22     22 6 5 9
    23     23 6 25 26
    24     24 6 25 27
    25     25 10 12 14
    26     26 10 12 23
    27     27 11 10 12
    28     28 12 14 13
    29     29 12 14 18
    30     30 13 14 18
    31     31 13 15 16
    32     32 13 15 20
    33     33 14 12 23
    34     34 14 13 15
    35     35 14 13 19
    36     36 14 18 17
    37     37 14 18 22
    38     38 15 13 19
    39     39 15 16 17
    40     40 15 16 21
    41     41 16 15 20
    42     42 16 17 18
    43     43 16 17 30
    44     44 17 16 21
    45     45 17 18 22
    46     46 17 30 31
    47     47 17 30 32
    48     48 18 17 30
    49     49 24 29 33
    50     50 25 27 34
    51     51 26 25 27
    52     52 28 24 29
    53     53 31 30 32

Dihedrals

     1      1 1 2 6 5
     2      2 1 2 6 25
     3      3 1 3 4 5
     4      4 1 3 4 10
     5      5 1 4 3 8
     6      6 1 6 2 7
     7      7 1 24 29 33
     8      8 1 28 24 29
     9      9 2 1 3 4
    10     10 2 1 3 8
    11     11 2 1 24 28
    12     12 2 1 24 29
    13     13 2 6 5 4
    14     14 2 6 5 9
    15     15 2 6 25 26
    16     16 2 6 25 27
    17     17 3 1 2 6
    18     18 3 1 2 7
    19     19 3 1 2 24
    20     20 3 1 24 28
    21     21 3 1 24 29
    22     22 3 4 5 6
    23     23 3 4 5 9
    24     24 3 4 10 11
    25     25 3 4 10 12
    26     26 4 5 6 25
    27     27 4 6 5 9
    28     28 4 10 12 14
    29     29 4 10 12 23
    30     30 4 12 10 11
    31     31 5 4 3 8
    32     32 5 4 10 11
    33     33 5 4 10 12
    34     34 5 6 2 7
    35     35 5 6 25 26
    36     36 5 6 25 27
    37     37 6 5 4 10
    38     38 6 25 27 34
    39     39 6 26 25 27
    40     40 7 2 6 25
    41     41 8 3 4 10
    42     42 9 5 4 10
    43     43 9 5 6 25
    44     44 10 3 4 5
    45     45 10 12 14 13
    46     46 10 12 14 18
    47     47 10 14 12 23
    48     48 11 10 12 14
    49     49 11 10 12 23
    50     50 11 10 12 23
    51     51 12 14 13 15
    52     52 12 14 13 19
    53     53 12 14 18 17
    54     54 12 14 18 22
    55     55 13 14 12 23
    56     56 13 14 18 17
    57     57 13 14 18 22
    58     58 13 15 16 17
    59     59 13 15 16 21
    60     60 13 16 15 20
    61     61 13 18 14 12
    62     62 14 13 15 16
    63     63 14 13 15 20
    64     64 14 15 13 19
    65     65 14 17 18 22
    66     66 14 18 17 16
    67     67 14 18 17 30
    68     68 15 13 14 18
    69     69 15 16 17 18
    70     70 15 16 17 30
    71     71 15 17 16 21
    72     72 16 15 13 19
    73     73 16 17 18 22
    74     74 16 17 30 31
    75     75 16 17 30 32
    76     76 16 18 17 30
    77     77 17 16 15 20
    78     78 17 31 30 32
    79     79 18 14 12 23
    80     80 18 14 13 19
    81     81 18 17 16 21
    82     82 18 17 30 31
    83     83 18 17 30 32
    84     84 19 13 15 20
    85     85 20 15 16 21
    86     86 21 16 17 30
    87     87 22 18 17 30
    88     88 24 1 2 6
    89     89 24 1 2 7
    90     90 24 1 3 4
    91     91 24 1 3 8
    92     92 25 2 6 5
    93     93 26 25 27 34
    94     94 26 25 27 34
    95     95 28 24 29 33
    96     96 28 24 29 33
