LAMMPS data file via write_data, version 29 Oct 2020, timestep = 1335

9481 atoms
16 atom types
8874 bonds
19 bond types
11699 angles
24 angle types
18775 dihedrals
42 dihedral types

11.246593 53.753407 xlo xhi
11.246593 53.753407 ylo yhi
-18.846 84.795 zlo zhi

Masses

1 12.01
2 1.008
3 12.01
4 16
5 14.01
6 1.008
7 16
8 14.01
9 1.008
10 12.01
11 14.01
12 12.01
13 1.008
14 16
15 15.9994
16 1.008

Pair Coeffs # lj/cut/coul/long/omp

1 0.086 3.39967
2 0.015 2.59964
3 0.086 3.39967
4 0.21 2.95992
5 0.17 3.25
6 0.0157 1.06908
7 0.2104 3.06647
8 0.17 3.25
9 0 0
10 0.086 3.39967
11 0.17 3.25
12 0.086 3.39967
13 0.0157 1.06908
14 0.2104 3.06647
15 0.102 3.188
16 0 0

Atoms # full

6507 10 16 0.415 15.553827167346393 14.690088565308402 -10.946833219637744 0 0 0
6608 44 15 -0.83 11.864091522404962 12.969736974316874 -17.74429655138973 0 0 0
6875 133 15 -0.83 15.820863528218183 16.32459818450415 -18.596436554684235 0 0 0
6876 133 16 0.415 16.540526716796435 15.75615389619845 -18.319665849343505 0 0 0
6877 133 16 0.415 16.56466311630462 15.779158964314991 -18.303022445095063 0 0 0
7106 210 15 -0.83 13.032612447303896 18.07193607275731 -12.76105407344234 0 0 0
7107 210 16 0.415 13.85451398019954 17.618664741706915 -12.547355486595146 0 0 0
7108 210 16 0.415 13.854577004341671 17.616534219716517 -12.508990878163194 0 0 0
7217 247 15 -0.83 14.600616837886028 11.577642266591699 -15.319036843055178 0 0 0
7218 247 16 0.415 13.651228888299295 11.576533537973 -15.454706479974687 0 0 0
7219 247 16 0.415 13.638208414304673 11.585022235414453 -15.424139244253128 0 0 0
7421 315 15 -0.83 17.265131240231813 14.961591198178363 -15.595101674325424 0 0 0
7422 315 16 0.415 16.974429539272446 14.813847105232785 -14.69102159739526 0 0 0
7423 315 16 0.415 16.949438796794208 14.785515396532327 -14.693652698709474 0 0 0
6485 3 15 -0.83 17.409763262441658 11.862514344528396 -6.241318533957358 0 0 0
6506 10 15 -0.83 16.33294116546963 14.83929466695924 -11.48619558935428 0 0 0
6508 10 16 0.415 15.564335303948118 14.698407708259202 -10.91335285725323 0 0 0
6617 47 15 -0.83 15.300904414488729 17.792240623029027 -8.504216280916395 0 0 0
6618 47 16 0.415 15.849597547141443 17.54518948405946 -7.76170015957827 0 0 0
6619 47 16 0.415 15.886239343328063 17.5402697394694 -7.777521633384048 0 0 0
6845 123 15 -0.83 15.311263022080867 11.764258157335393 -10.838626728058044 0 0 0
6846 123 16 0.415 14.4482949048773 11.47667115241598 -10.542443034103576 0 0 0
6847 123 16 0.415 14.451358390213782 11.475160772999567 -10.503679269241704 0 0 0
7118 214 15 -0.83 11.641477456789952 15.257120454686287 -9.622445844345583 0 0 0
6486 3 16 0.415 16.51655941307264 11.8388981410748 -5.897729435069477 0 0 0
7223 249 15 -0.83 18.381115265304558 11.399418175966323 -12.351348337271675 0 0 0
7212 245 16 0.415 18.59818452136492 12.280420082267092 -16.3860929445491 0 0 0
6620 48 15 -0.83 22.79356875190445 17.76863702600572 -13.709825280849161 0 0 0
6621 48 16 0.415 23.4622947446027 17.193236056279975 -14.074430692003956 0 0 0
6622 48 16 0.415 23.472402737580182 17.21002723114741 -14.107447112368858 0 0 0
7211 245 15 -0.83 19.420791110574086 11.852181345656652 -16.611141065699737 0 0 0
7213 245 16 0.415 18.609182744543187 12.312812017162315 -16.365189248078813 0 0 0
7225 249 16 0.415 18.80574729995551 12.250055572405891 -12.168096737758127 0 0 0
7361 295 15 -0.83 21.54516902758089 16.5492493286404 -17.869560064497463 0 0 0
7362 295 16 0.415 22.23399949223554 15.918675317492083 -17.66237415164465 0 0 0
7363 295 16 0.415 22.215860596609094 15.890789934202438 -17.64215203911207 0 0 0
7224 249 16 0.415 18.825932402210835 12.221679533277342 -12.146040185724729 0 0 0
7091 205 15 -0.83 24.555674950900595 14.90049933335718 -9.450010898572659 0 0 0
7092 205 16 0.415 24.609468809091688 14.074721138118377 -9.930546157347164 0 0 0
7093 205 16 0.415 24.63294322221052 14.083890498124793 -9.964742921059594 0 0 0
7178 234 15 -0.83 20.449197988460778 13.725350092327679 -6.7003989265447315 0 0 0
7179 234 16 0.415 20.192713361979404 12.800311715559769 -6.804438021094259 0 0 0
7180 234 16 0.415 20.213069563173292 12.782377465537783 -6.779878640347283 0 0 0
7331 285 15 -0.83 20.230126425369594 17.12096792715975 -9.018784216844965 0 0 0
7332 285 16 0.415 21.174289536222176 17.095892586585414 -9.154259585892701 0 0 0
7333 285 16 0.415 21.184479091505963 17.059750349542547 -9.14461508380946 0 0 0
7394 306 15 -0.83 25.068162934243894 17.42747285019226 -6.750502766826846 0 0 0
7395 306 16 0.415 24.659683446032897 16.66702641809372 -7.164680992141861 0 0 0
7396 306 16 0.415 24.64295416630177 16.680426939302766 -7.193486027726342 0 0 0
7460 328 15 -0.83 21.560609011264056 11.405157762251958 -9.386348940944819 0 0 0
7462 328 16 0.415 22.4032056585671 11.85706620440317 -9.501625151279708 0 0 0
7461 328 16 0.415 22.405242023323748 11.830623015452579 -9.454209589329114 0 0 0
6626 50 15 -0.83 31.67944579228022 11.48578038162068 -13.995068876090835 0 1 0
6803 109 15 -0.83 26.816134712983413 16.97473547024049 -13.845740163191351 0 0 0
6804 109 16 0.415 27.582072052466735 17.38520691097581 -14.246842954626246 0 0 0
6805 109 16 0.415 27.582562113552406 17.42209193322165 -14.23183085702609 0 0 0
6812 112 15 -0.83 30.862958075851015 16.71188532268255 -11.81093921888727 0 0 0
6813 112 16 0.415 31.14969978798914 16.42461817823163 -12.681960503704454 0 0 0
6814 112 16 0.415 31.122242643594603 16.429653557008777 -12.702143632580022 0 0 0
7082 202 15 -0.83 29.593438525536016 15.077263921781483 -18.56205577419667 0 0 0
7083 202 16 0.415 29.256503287275926 15.961238356901264 -18.434946720893784 0 0 0
7084 202 16 0.415 29.28565272122656 15.983120732220947 -18.440755042177344 0 0 0
7355 293 15 -0.83 31.362948565604707 14.148846942352268 -15.371778077598291 0 0 0
7356 293 16 0.415 31.55794623952502 13.209090948861657 -15.312493200815794 0 0 0
7357 293 16 0.415 31.576737178701883 13.202630031016449 -15.339852147650761 0 0 0
7889 471 15 -0.83 27.844043918310575 12.165161507664951 -15.611289254370089 0 0 0
7891 471 16 0.415 28.49580210573339 11.543357284338022 -15.26836238614619 0 0 0
6992 172 15 -0.83 31.323410452940692 18.206097267921802 -15.430009624041007 0 0 0
7890 471 16 0.415 28.495013670513895 11.538713692417621 -15.303993441113311 0 0 0
6545 23 15 -0.83 27.81309049130843 13.338636659425537 -9.48868887107241 0 0 0
6546 23 16 0.415 28.15856674554021 12.648250168240082 -10.046439012591275 0 0 0
6547 23 16 0.415 28.1602496813926 12.667607266447735 -10.089330983658975 0 0 0
7487 337 15 -0.83 28.644287832723908 17.942444908005584 -7.832710956451558 0 0 0
7488 337 16 0.415 28.35336941851882 17.49671389464933 -8.635504513226971 0 0 0
7489 337 16 0.415 28.332063651129012 17.47186692558586 -8.624340493799568 0 0 0
7973 499 15 -0.83 31.397618805438842 13.92421912482763 -8.567329380335735 0 0 0
7974 499 16 0.415 30.663945236333312 14.539390117532756 -8.60719755810889 0 0 0
7975 499 16 0.415 30.657395402201537 14.54753563615347 -8.573357893415917 0 0 0
7400 308 15 -0.83 27.60442105626086 18.19453517672447 -18.122992798648024 0 0 0
6566 30 15 -0.83 17.245001034961774 18.98506936781628 -13.560006792048176 0 0 0
6567 30 16 0.415 18.120505965970384 19.032205036909772 -13.950802675184768 0 0 0
6568 30 16 0.415 18.116448122812525 19.055073286380164 -13.979966677628951 0 0 0
6971 165 15 -0.83 11.963204529383761 23.983233046155448 -12.640541857480262 0 0 0
6973 165 16 0.415 12.195461807016589 23.047489332826093 -12.69739423103566 0 0 0
7004 176 15 -0.83 16.863772163707672 22.59855646750779 -15.994559453435622 0 0 0
7005 176 16 0.415 16.152604532799227 22.76927249231451 -16.607841353857513 0 0 0
7006 176 16 0.415 16.1562856172348 22.738963155622056 -16.636864276812304 0 0 0
7142 222 15 -0.83 15.20999175187246 22.08443374916356 -12.963422633871287 0 0 0
7143 222 16 0.415 15.90434961727451 21.419390527371036 -12.948493007279035 0 0 0
7144 222 16 0.415 15.932578788219722 21.436775069832063 -12.951622487760446 0 0 0
6972 165 16 0.415 12.148414425248797 23.050997613119982 -12.706627655151424 0 0 0
6633 52 16 0.415 11.627320230327351 22.030184284252677 -8.980584391746458 0 0 0
6634 52 16 0.415 11.624050016341512 22.007944395683424 -8.953288672345524 0 0 0
7088 204 15 -0.83 15.145265973787051 21.50703188891897 -9.871740690952443 0 0 0
7089 204 16 0.415 15.563307363883808 21.91694085127913 -9.122810223674005 0 0 0
7090 204 16 0.415 15.57893654033397 21.88302645867437 -9.098985356240087 0 0 0
7197 240 16 0.415 17.060890899905736 24.30148177038722 -6.29685523500722 0 0 0
7198 240 16 0.415 17.036905977265874 24.311251560419755 -6.331176127065358 0 0 0
7169 231 15 -0.83 24.2572553717011 20.864316970166893 -14.167710729542598 0 0 0
7170 231 16 0.415 24.51007458895143 21.20795537231896 -13.309676395033035 0 0 0
7171 231 16 0.415 24.478675175658363 21.215898146411067 -13.293524586114524 0 0 0
7526 350 15 -0.83 24.321032362979935 19.710181102360878 -17.8744313906034 0 0 0
7527 350 16 0.415 23.48604341481013 20.172971730994117 -17.762809478211214 0 0 0
7528 350 16 0.415 23.47771155135311 20.16967022423894 -17.72211460881943 0 0 0
7907 477 15 -0.83 21.99570174147968 24.292625690971544 -17.9621640105251 0 0 0
7908 477 16 0.415 21.799000134965375 23.361921569104666 -17.898210566965673 0 0 0
7909 477 16 0.415 21.785304663404972 23.35638833510538 -17.856398376615488 0 0 0
6899 141 15 -0.83 18.590799248485467 20.619427758941974 -6.25152303290073 0 0 0
6900 141 16 0.415 19.081591541825794 20.63114789297137 -7.061967262919111 0 0 0
6901 141 16 0.415 19.066108702459818 20.592247450333524 -7.085906777806448 0 0 0
7652 392 15 -0.83 19.565219419556115 21.352596706819604 -11.573487373140983 0 0 0
7653 392 16 0.415 19.316845567347936 21.446460774099723 -10.662868842435376 0 0 0
7654 392 16 0.415 19.300861488866307 21.402843566555802 -10.650286227205608 0 0 0
7688 404 15 -0.83 19.81056330916359 25.402210040097206 -12.909210094741114 0 0 0
7032 185 16 0.415 25.790623442400182 22.890101829136118 -17.51819283358605 0 0 0
7401 308 16 0.415 26.91554265390569 18.685251549956817 -17.666279056250367 0 0 0
6728 84 15 -0.83 30.506156411258797 22.2969932085942 -12.945458533041865 0 0 0
6729 84 16 0.415 30.40048177442522 22.829685809058986 -12.151839952917612 0 0 0
6730 84 16 0.415 30.39635888621538 22.806297160907288 -12.126100992679849 0 0 0
6993 172 16 0.415 31.938441721863796 18.922129347639903 -15.550913795842021 0 0 0
7031 185 15 -0.83 25.587017681377965 23.836936244462887 -17.491807965041154 0 0 0
7033 185 16 0.415 25.815948713985584 22.885630274513836 -17.552226428790757 0 0 0
7402 308 16 0.415 26.930076627288518 18.697903019965917 -17.641414251722814 0 0 0
7415 313 15 -0.83 25.907190739521887 22.976924187655538 -11.789909351322333 0 0 0
7676 400 15 -0.83 27.865087594772895 21.639760072629084 -15.00656749324807 0 0 0
7677 400 16 0.415 28.742642040837044 21.962519436888645 -15.208459039313704 0 0 0
7678 400 16 0.415 28.73705320602982 21.997447394975982 -15.221386803705789 0 0 0
7842 455 16 0.415 31.321626336160847 23.24252428701041 -18.229036591791203 0 0 0
7843 455 16 0.415 31.35387219224471 23.261955603546284 -18.24751427177389 0 0 0
6994 172 16 0.415 31.967662211613828 18.916704357924363 -15.51933610840074 0 0 0
7416 313 16 0.415 26.27881581086005 23.462918222654007 -11.045994049902006 0 0 0
6647 57 15 -0.83 26.918624881045005 19.12599374646122 -10.446511006611324 0 0 0
6648 57 16 0.415 26.44283685244911 19.712636428908382 -11.034474486176396 0 0 0
6649 57 16 0.415 26.406488722896267 19.697640325815808 -11.035983229783657 0 0 0
7049 191 15 -0.83 28.40877188221829 24.542544350813003 -8.32424513099885 0 0 0
7051 191 16 0.415 27.830215915046743 25.18077577276755 -7.879323142461559 0 0 0
7181 235 15 -0.83 31.803944636507627 23.76930679135079 -9.231660248461438 0 0 0
7256 260 15 -0.83 26.24428085146708 21.35274513719619 -7.248803981366931 0 0 0
7257 260 16 0.415 26.649800684226367 20.48704209638144 -7.30062515984548 0 0 0
7258 260 16 0.415 26.683691763570693 20.49353279707476 -7.313488610558275 0 0 0
7417 313 16 0.415 26.31254914563656 23.463326706511268 -11.052038969971854 0 0 0
7050 191 16 0.415 27.86109346127123 25.189720400928483 -7.872190892566849 0 0 0
7841 455 15 -0.83 31.084160757980033 22.548399242440297 -18.835573192956545 0 0 0
7161 228 16 0.415 17.395821422551695 25.472522868113376 -10.328551178339774 0 0 0
6611 45 15 -0.83 16.975603776597286 26.052004271787414 -17.629539643745417 0 0 0
6612 45 16 0.415 17.893473526996306 26.093404377645147 -17.90740134923438 0 0 0
6613 45 16 0.415 17.891863443865354 26.100615195227892 -17.942814591608144 0 0 0
6953 159 15 -0.83 15.023164010533172 29.111293858721314 -16.45585377224556 0 0 0
6954 159 16 0.415 14.777301650868463 28.274113439148483 -16.864033339539663 0 0 0
6955 159 16 0.415 14.761732198198844 28.283027302690297 -16.893007567098024 0 0 0
7554 359 16 0.415 13.68830966420535 26.69105925049261 -11.037299448245282 0 0 0
7775 433 15 -0.83 14.662462149703828 32.26703900597481 -18.682179681297566 0 0 0
7776 433 16 0.415 14.80387640344748 32.02983344251631 -17.754150629557643 0 0 0
7777 433 16 0.415 14.772538523514195 32.016477852383076 -17.74350277349635 0 0 0
7913 479 15 -0.83 16.99318397314253 29.188552616978043 -12.642356294218665 0 0 0
7914 479 16 0.415 16.26071664671734 28.575900150971943 -12.7714265975913 0 0 0
7915 479 16 0.415 16.232359123156897 28.59657740593878 -12.77422756339382 0 0 0
6512 12 15 -0.83 11.809362597041286 28.60189562354051 -7.627717886464949 0 0 0
6554 26 15 -0.83 17.525592271071798 31.073414066575566 -8.920858396741876 0 0 0
6555 26 16 0.415 18.20519187192745 30.472813242697427 -9.23836805853575 0 0 0
6980 168 15 -0.83 14.229663607013025 26.305729213802707 -7.014680513424512 0 0 0
6981 168 16 0.415 14.031212938995589 27.11570279124168 -6.5347275045736035 0 0 0
6982 168 16 0.415 14.01664513586656 27.1052487043516 -6.506285839574824 0 0 0
7160 228 15 -0.83 18.177576768985404 25.971070655647768 -10.10508904862693 0 0 0
7162 228 16 0.415 17.370102123040354 25.472552176815153 -10.288797467827237 0 0 0
7367 297 15 -0.83 13.799885774137778 31.02123366084328 -6.547104637050311 0 0 0
7368 297 16 0.415 14.311763503484688 31.562255244417837 -5.945241813555056 0 0 0
7553 359 15 -0.83 14.145504510117409 27.441115385614037 -11.422726637665026 0 0 0
7555 359 16 0.415 13.67163897608757 26.70456449235868 -11.008500578400897 0 0 0
6746 90 15 -0.83 11.448661426168648 27.945695468056563 -17.89239005576222 1 0 0
6556 26 16 0.415 18.238805359918228 30.491716616688525 -9.231691549308199 0 0 0
6697 73 16 0.415 11.248461195545449 28.392082991178768 -10.312101284352263 1 0 0
7369 297 16 0.415 14.332238760167657 31.53474303206812 -5.921364746836805 0 0 0
6654 59 16 0.415 22.351851069753476 32.46842703815354 -10.857651371882678 0 0 0
7237 253 16 0.415 18.474229509223676 30.056141416356486 -15.019446374961085 0 0 0
6536 20 15 -0.83 21.946414755658495 27.60200128986829 -15.95164667275152 0 0 0
6537 20 16 0.415 21.239946128485325 28.169429821831187 -15.637875493203959 0 0 0
6538 20 16 0.415 21.24990056541042 28.17831915639933 -15.603285206532556 0 0 0
6578 34 15 -0.83 18.63237272382021 32.05250177315672 -18.517485390459676 0 0 0
6579 34 16 0.415 19.4077995137739 31.56663369650114 -18.826420047862182 0 0 0
6580 34 16 0.415 19.43002546381972 31.590146837369552 -18.833450272922647 0 0 0
6655 59 16 0.415 22.356930686132223 32.46394097313744 -10.89633403874625 0 0 0
7235 253 15 -0.83 19.40233692706417 29.782110320463584 -15.13730440308293 0 0 0
7236 253 16 0.415 18.491605889195576 30.070011941442335 -14.993885535537089 0 0 0
7409 311 15 -0.83 24.85073418921992 26.87720488509198 -18.56988167052118 0 0 0
7411 311 16 0.415 24.903842671063284 26.33585740749634 -17.76668584463769 0 0 0
7628 384 15 -0.83 23.623216310686118 27.029560182772713 -12.682560664195007 0 0 0
7629 384 16 0.415 24.52526566242627 27.027687647743388 -12.373519562380514 0 0 0
7630 384 16 0.415 24.54551545145723 27.04721098464017 -12.401835445021451 0 0 0
7689 404 16 0.415 20.51879393658121 25.74752464927043 -13.448580207138074 0 0 0
7690 404 16 0.415 20.506889776260763 25.740107745994173 -13.486980168103104 0 0 0
7760 428 15 -0.83 23.112178513380837 31.16901165339347 -16.101378726959176 0 0 0
7761 428 16 0.415 22.509377569541947 30.803495578508812 -16.74613086765563 0 0 0
7762 428 16 0.415 22.472507344909094 30.811492870539197 -16.73116808321981 0 0 0
7410 311 16 0.415 24.93877395932227 26.333841791867624 -17.7838521385402 0 0 0
6653 59 15 -0.83 22.22001851395685 31.581228657525102 -10.53066266268769 0 0 0
6962 162 15 -0.83 21.394228614906083 28.184063613943614 -8.643149432619198 0 0 0
6963 162 16 0.415 20.691408301062076 27.75307564341998 -9.125085028552617 0 0 0
6964 162 16 0.415 20.686415207228272 27.77493332388284 -9.15635217022682 0 0 0
7848 457 16 0.415 29.605215068291802 32.474478337615054 -12.52347804197454 0 0 0
6810 111 16 0.415 25.57018734102267 27.961496208962288 -8.052707394514702 0 0 0
6616 46 16 0.415 28.2665491052946 28.857142637243115 -11.192585913522054 0 0 0
6740 88 15 -0.83 26.990953784292067 30.495430485956362 -15.886380136261602 0 0 0
6741 88 16 0.415 27.09144996220327 29.62674190473289 -15.49761096391678 0 0 0
6742 88 16 0.415 27.070119627778947 29.627906168072794 -15.466175969758703 0 0 0
6796 106 16 0.415 32.42803592162101 26.921735055327783 -18.310252595352 0 0 0
7124 216 15 -0.83 30.879663323472002 26.574800833048375 -13.530367696537311 0 0 0
7125 216 16 0.415 31.107798554413097 27.021405246818077 -12.719179190634653 0 0 0
7126 216 16 0.415 31.131580626769953 26.99503804087594 -12.699458443908124 0 0 0
7307 277 15 -0.83 27.971032654700718 26.408428017471334 -15.06151142564803 0 0 0
7308 277 16 0.415 27.343549440716863 25.955081497078666 -14.504484321993885 0 0 0
7309 277 16 0.415 27.30537561405302 25.96448387959247 -14.52157768059272 0 0 0
7392 305 16 0.415 32.13161354600546 32.00061419315878 -16.014254560684144 0 0 0
7672 398 16 0.415 25.918104153590797 30.788853145646378 -11.050405793394525 0 0 0
7847 457 15 -0.83 29.329812801307206 31.740501873711587 -11.9665315572526 0 0 0
7849 457 16 0.415 29.60449706688783 32.46032674459938 -12.558894514534936 0 0 0
7393 305 16 0.415 32.15397591718919 32.0183004016289 -16.046960581590945 0 0 0
7671 398 16 0.415 25.882768725680986 30.77843067845035 -11.023419824388064 0 0 0
6614 46 15 -0.83 27.54510193216947 28.2144889504561 -11.308980705411143 0 0 0
6615 46 16 0.415 28.25985795836083 28.838656675497365 -11.154033072265127 0 0 0
6809 111 15 -0.83 26.112175261241855 27.206726868730687 -8.298783443172466 0 0 0
6811 111 16 0.415 25.592710626206067 27.983980339634197 -8.037824352003222 0 0 0
6941 155 15 -0.83 28.682624506095994 29.94951085141946 -6.588038707528904 0 0 0
6942 155 16 0.415 28.58625071710263 30.894899383347962 -6.5086741508318795 0 0 0
6943 155 16 0.415 28.57888415433097 30.901404948919136 -6.466941648783974 0 0 0
7670 398 15 -0.83 25.551335232259774 31.622761438273276 -10.730483236408846 0 0 0
7799 441 15 -0.83 30.974031105333456 29.09517036637555 -8.908550697911705 0 0 0
7800 441 16 0.415 31.854741567012578 28.919850413155476 -8.581894573328334 0 0 0
7801 441 16 0.415 31.858424074299897 28.87881978042483 -8.583806641424015 0 0 0
6795 106 16 0.415 32.465983945398065 26.919101477012536 -18.329541388045786 0 0 0
7391 305 15 -0.83 32.45300757931991 32.44764888843405 -15.238853846424336 0 0 0
6487 3 16 0.415 16.515495071874625 11.868652909820575 -5.870412425602138 0 0 0
7641 388 16 0.415 12.210927011857278 16.16942508089202 -4.016254635434971 0 0 0
6636 53 16 0.415 16.931504674183497 14.999756620868117 3.9655660928310863 0 0 0
6650 58 15 -0.83 15.651594794580427 17.03099608576403 -2.656916875061302 0 0 0
6651 58 16 0.415 16.54651186878363 17.12538726407286 -2.3255495863742293 0 0 0
6652 58 16 0.415 16.55692410119822 17.156705268978097 -2.337299761569863 0 0 0
6995 173 15 -0.83 17.72534242546762 12.184359505953257 -0.04647286432314451 0 0 0
6996 173 16 0.415 17.346108730498884 12.299512016450494 0.8336288120052183 0 0 0
6997 173 16 0.415 17.381407572451746 12.314039044175031 0.8595099656133239 0 0 0
7640 388 15 -0.83 12.269965519870635 17.1228765368482 -4.025898360585772 0 0 0
7642 388 16 0.415 12.234754588108652 16.157885199204223 -3.984107596647851 0 0 0
6635 53 15 -0.83 16.942521245317657 15.346771873374015 3.076276051477185 0 0 0
6637 53 16 0.415 16.892205538516297 15.003733237745807 3.9776798790211716 0 0 0
7220 248 15 -0.83 13.97837927839631 16.641303689155684 4.869621282211911 0 0 0
7221 248 16 0.415 13.20985820923948 17.170958999812783 5.072777029856027 0 0 0
7222 248 16 0.415 13.223749518185185 17.20001206952623 5.096296485394851 0 0 0
7898 474 15 -0.83 14.027581299857804 12.373887790297003 4.406828283155416 0 0 0
7899 474 16 0.415 13.318917670804433 12.98403533737983 4.609601579766568 0 0 0
7900 474 16 0.415 13.324651925839401 12.993387047770254 4.6440274732614135 0 0 0
6780 101 16 0.415 19.478542290453092 15.100513604721964 -4.4531393022329695 0 0 0
7950 491 16 0.415 22.0372260040724 17.862435714356398 -3.4254734974196026 0 0 0
6623 49 15 -0.83 19.415352957370185 15.75400597959098 -0.976706569043739 0 0 0
6624 49 16 0.415 19.77576737965661 15.794857754925172 -0.09593131892066926 0 0 0
6625 49 16 0.415 19.815551656339085 15.807630859975715 -0.10146029450718906 0 0 0
6779 101 15 -0.83 18.71339795548433 15.55718709243292 -4.101685252019407 0 0 0
6781 101 16 0.415 19.48638940291501 15.074965075908795 -4.427860364205465 0 0 0
6887 137 15 -0.83 23.542343650703156 14.084285445410412 -1.400217585803186 0 0 0
6888 137 16 0.415 23.746633101836427 14.795786444905001 -2.0069582003577815 0 0 0
6889 137 16 0.415 23.727593607218353 14.7878187797999 -2.037075988514319 0 0 0
7397 307 15 -0.83 20.632391017796184 13.878371057581994 2.4687703504337124 0 0 0
7398 307 16 0.415 21.370908585153536 14.267280430472145 2.9336489388124605 0 0 0
7651 391 16 0.415 23.53487653773978 18.201013140445756 1.0488687296739347 0 0 0
7949 491 15 -0.83 22.8800885175855 17.487780845010306 -3.6877472617999074 0 0 0
7951 491 16 0.415 22.043975273201774 17.87822276194563 -3.3922206230593717 0 0 0
6527 17 15 -0.83 24.762178055598888 12.647178493619952 4.769564103599559 0 0 0
6528 17 16 0.415 24.342209789511536 12.718108318047287 3.916499374527303 0 0 0
6529 17 16 0.415 24.314435020453743 12.685659471652862 3.9155901709385956 0 0 0
7319 281 15 -0.83 18.4665917740035 17.65941913355346 5.854163073738951 0 0 0
7321 281 16 0.415 19.22354568065494 17.568268921253544 5.267260802298392 0 0 0
7328 284 15 -0.83 22.767900831774202 16.146443763801358 4.358389970220801 0 0 0
7329 284 16 0.415 23.37630287616565 16.678806180818587 4.8785357490065815 0 0 0
7330 284 16 0.415 23.35791674239579 16.68777832290807 4.9070368222377425 0 0 0
7399 307 16 0.415 21.36290565210971 14.261608480101142 2.970779287020906 0 0 0
7320 281 16 0.415 19.203545763060323 17.605035433544355 5.256365350928439 0 0 0
7650 391 16 0.415 23.568317421235054 18.21768635812264 1.0266305994662317 0 0 0
7948 490 16 0.415 25.975062871884315 11.538788328729764 -3.9402022605437454 0 0 0
7574 366 15 -0.83 27.216572179544208 16.729358581518238 0.35051296051608316 0 0 0
7575 366 16 0.415 27.676971041498145 17.53478126523466 0.5880254656884636 0 0 0
7576 366 16 0.415 27.689363435424365 17.52850164358669 0.6245954081892988 0 0 0
7823 449 15 -0.83 27.492738317540937 13.301449184266646 -0.716730725205994 0 0 0
7824 449 16 0.415 27.812661613652143 14.173503240141297 -0.4950072574860089 0 0 0
7825 449 16 0.415 27.81287862073918 14.174127072674626 -0.45756556412156396 0 0 0
7946 490 15 -0.83 26.873766099301964 11.773679386324236 -4.195171543992658 0 0 0
7947 490 16 0.415 26.001474484252476 11.53557281606841 -3.901842591964381 0 0 0
7196 240 15 -0.83 16.492652408800986 23.76151816063204 -5.756768445585698 0 0 0
7351 291 16 0.415 12.324537111854077 24.719944063830226 -3.778783987621967 0 0 0
7715 413 15 -0.83 11.951236679504682 20.320816069791093 -5.159294530262179 0 0 0
7716 413 16 0.415 12.717302618879087 20.22222893407655 -4.578940340496926 0 0 0
7349 291 15 -0.83 12.2387805809313 24.75243108625792 -2.8148892534775807 0 0 0
7350 291 16 0.415 12.359891670414251 24.718471581503042 -3.7646384999957183 0 0 0
7717 413 16 0.415 12.703775367698956 20.209255968212112 -4.548412848063117 0 0 0
7768 430 16 0.415 18.023097164026666 23.468042631590027 0.7426751225317875 0 0 0
7793 439 15 -0.83 13.621191724650366 22.561404238690717 0.660503390038015 0 0 0
7794 439 16 0.415 13.03802218106154 22.979917913583147 1.2880078383638334 0 0 0
7795 439 16 0.415 13.002948452849015 22.962398249584034 1.28210673843126 0 0 0
6500 8 15 -0.83 12.603178478614634 20.64683418110336 4.603712667466423 0 0 0
6501 8 16 0.415 11.961379889003114 20.888867443055894 5.265961552124304 0 0 0
6502 8 16 0.415 11.9837302902638 20.90772661243842 5.295671641431481 0 0 0
7325 283 15 -0.83 12.001519698892961 25.19625724118837 3.9645160830561506 0 0 0
7767 430 16 0.415 18.061295718438647 23.45499717326769 0.7342832752830905 0 0 0
7583 369 15 -0.83 21.65549293991071 20.87249447128136 -4.2721190950373975 0 0 0
7585 369 16 0.415 22.471880530919062 21.37492325403609 -4.40780019957321 0 0 0
7766 430 15 -0.83 18.491465812771594 23.418321350710766 1.5837587360137628 0 0 0
7025 183 15 -0.83 24.788107005900958 22.940763719525698 -2.9615396773082923 0 0 0
7584 369 16 0.415 22.45482922686469 21.39005421486923 -4.378056087993565 0 0 0
7649 391 15 -0.83 23.165033733178078 18.65732353195035 0.2879351693967251 0 0 0
6488 4 15 -0.83 30.503249090516178 19.702924518517367 -4.87328792246486 0 0 0
6489 4 16 0.415 29.62697607640889 19.309376601939395 -4.9112852814566414 0 0 0
6490 4 16 0.415 29.632170458670277 19.27692140137963 -4.928262056545725 0 0 0
7451 325 15 -0.83 31.611378989727424 23.911516515139862 -4.26959686720178 0 0 0
7453 325 16 0.415 32.34758405684088 23.493270427417116 -4.746599774724169 0 0 0
7498 340 16 0.415 28.998529731185002 23.492390522956704 -3.5123301813260204 0 0 0
7026 183 16 0.415 25.71177341817122 22.68033289676621 -2.9801341856903267 0 0 0
7027 183 16 0.415 25.721077409448927 22.678556807599463 -2.946246310684032 0 0 0
7496 340 15 -0.83 28.34260649850735 22.94587788309345 -3.0458552347080694 0 0 0
7497 340 16 0.415 29.0066604571665 23.493410625489094 -3.4803082748411613 0 0 0
7718 414 15 -0.83 32.06627187352807 21.802103459082534 1.0210946818193596 0 0 0
7719 414 16 0.415 32.354481463972895 22.65209325940108 0.6924278150225396 0 0 0
7720 414 16 0.415 32.35562272971576 22.6477024815372 0.6541146666956783 0 0 0
7452 325 16 0.415 32.351499572287196 23.485363382112507 -4.714565787207185 0 0 0
6752 92 15 -0.83 26.703819581641728 22.007796354313268 5.149908091168765 0 0 0
6753 92 16 0.415 26.085683030918524 21.707332500617753 4.490285138663934 0 0 0
6754 92 16 0.415 26.10878896840718 21.700511155470764 4.456948840428731 0 0 0
7880 468 15 -0.83 30.72247325724475 23.07744984767932 4.460874249032463 0 0 0
7881 468 16 0.415 30.04318071140939 23.56529136533588 4.92192971027742 0 0 0
7882 468 16 0.415 30.044008344305187 23.551150130547903 4.958221036960651 0 0 0
6534 19 16 0.415 17.357177287281512 31.55702904128177 -3.4243185009977943 0 0 0
6744 89 16 0.415 16.15014179755539 27.945725716440563 -3.5999806965982657 0 0 0
7044 189 16 0.415 11.639589222077467 31.014927063555323 -3.7567830059004352 0 0 0
7043 189 15 -0.83 11.46694685036736 31.65343103568786 -3.063748000267672 0 0 0
6533 19 15 -0.83 16.867458215314503 32.099464797490306 -4.0511897404174455 0 0 0
6535 19 16 0.415 17.342919229132598 31.563212456132216 -3.395162558163255 0 0 0
6743 89 15 -0.83 15.616162001252466 28.691546737889766 -3.86730898926831 0 0 0
6745 89 16 0.415 16.133892478117968 27.933738585879954 -3.5650553722849887 0 0 0
7001 175 15 -0.83 17.910471166045816 31.238985033661827 2.2077280223946762 0 0 0
7002 175 16 0.415 16.995126699605297 31.54060396611632 2.2381286069277477 0 0 0
7003 175 16 0.415 16.984181115851424 31.54189758717006 2.2011031341683465 0 0 0
7045 189 16 0.415 11.655352183967782 30.98283360257539 -3.737303871850948 0 0 0
7327 283 16 0.415 12.13037610295434 25.59723496107943 3.0999209035404323 0 0 0
7364 296 15 -0.83 16.667339879583782 27.704694483760928 0.718275750301183 0 0 0
7365 296 16 0.415 15.895148600657775 27.80239928411747 1.283245374446411 0 0 0
7366 296 16 0.415 15.871175613527962 27.783966010620944 1.2680461138673815 0 0 0
7979 501 15 -0.83 13.60052716600845 29.054075749973887 2.614506868962422 0 0 0
7980 501 16 0.415 12.73734471775537 29.397460940396712 2.855990711902091 0 0 0
7326 283 16 0.415 12.171958031352537 25.59402223678763 3.119686960146069 0 0 0
6734 86 15 -0.83 15.703580007900939 29.734054375191842 6.426945762299176 0 0 0
6735 86 16 0.415 16.386937094168427 29.622831650814362 5.773706088820905 0 0 0
6736 86 16 0.415 16.373216348053013 29.592088580685473 5.749557239033168 0 0 0
7981 501 16 0.415 12.738363804302502 29.39983732993581 2.8940290222941987 0 0 0
7481 335 15 -0.83 20.597541056206833 29.076621818280998 -4.475314613184387 0 0 0
7482 335 16 0.415 21.224618049969504 29.648733688938528 -4.037114109908138 0 0 0
7448 324 15 -0.83 20.132362788468974 27.1896913639184 -0.45994543653342934 0 0 0
7449 324 16 0.415 19.20635258493245 26.959708844039252 -0.44798521679733294 0 0 0
7450 324 16 0.415 19.200938159132956 26.942301786715163 -0.41271468291117586 0 0 0
7483 335 16 0.415 21.23791366963275 29.626681755705025 -4.005005122425276 0 0 0
7485 336 16 0.415 23.955259248149208 28.107106801280597 3.9021867863449615 0 0 0
7613 379 15 -0.83 21.325241396996827 30.00537005017502 2.715527661564854 0 0 0
7614 379 16 0.415 20.443950495042092 30.020207657962864 2.3400905075561327 0 0 0
7615 379 16 0.415 20.445900003782995 29.997397076831632 2.3111175832188566 0 0 0
7724 416 15 -0.83 23.7266754802397 28.780211009539382 -1.425437515436682 0 0 0
7725 416 16 0.415 24.31245618413622 28.79582548946072 -0.6724141624084249 0 0 0
7726 416 16 0.415 24.292605810092276 28.774347513977958 -0.6435646923047499 0 0 0
7871 465 15 -0.83 19.538619599158736 31.842038958440995 -1.827914684069451 0 0 0
7872 465 16 0.415 20.2006921116709 32.02218846945039 -1.159972190176226 0 0 0