LAMMPS data file via write_data, version 29 Oct 2020, timestep = 1268

6481 atoms
14 atom types
6874 bonds
18 bond types
10699 angles
23 angle types
18775 dihedrals
42 dihedral types

11.246593 53.753407 xlo xhi
11.246593 53.753407 ylo yhi
1.27354 64.665814 zlo zhi

Masses

1 12.01
2 1.008
3 12.01
4 16
5 14.01
6 1.008
7 16
8 14.01
9 1.008
10 12.01
11 14.01
12 12.01
13 1.008
14 16

Pair Coeffs # lj/cut/coul/long/omp

1 0.086 3.39967
2 0.015 2.59964
3 0.086 3.39967
4 0.21 2.95992
5 0.17 3.25
6 0.0157 1.06908
7 0.2104 3.06647
8 0.17 3.25
9 0 0
10 0.086 3.39967
11 0.17 3.25
12 0.086 3.39967
13 0.0157 1.06908
14 0.2104 3.06647

Atoms # full

 1 1 6 0.3728 15.657893070144459 18.43284063892927 14.023580872884091
 2 1 1 -0.0399 11.859939799133212 13.94975883488844 14.4927145014376
 3 1 1 0.0692 12.896330448763793 12.288294415000664 16.50437218664395
 4 1 2 0.0000 14.47517367255523 15.29666736261153 13.917536504123655
 5 1 4 -0.5853 18.06038113247099 19.26114764106835 13.261797383351382
 6 1 1 -0.2315 17.114920007719444 14.130843547453834 15.730018932252651
 7 1 1 0.3883 17.774997905616104 15.354991039820122 15.943143290811816
 8 1 1 -0.3154 17.266561800502377 16.5428819727586 15.400266941295646
 9 1 1 0.5496 16.10310636443635 16.4931341765765 14.61246607627789
 10 1 8 -0.9254 15.772113746165191 17.49207193893238 13.6795429575925
 11 1 2 0.0000 17.858914019015764 17.45074802897312 15.479612398169023
 12 1 2 0.0000 11.678694568693212 18.01701650269605 12.222492328601765
 13 1 1 -0.0399 13.010714158548494 11.929702302852377 15.145922369433512
 14 1 1 -0.2772 15.377583595974379 15.304907834877968 14.515572468434511
 15 1 1 0.0344 12.421995863034713 12.719304741818524 14.1574033535247
 16 1 2 0.0000 15.391250273877695 13.179532189801378 14.833692163519425
 17 1 2 0.0000 17.559190065487332 13.195294197001223 16.060249221629746
 18 1 2 0.0000 15.33409689665243 20.11936622273248 13.135177123629699
 19 1 2 0.0000 12.459003952510269 12.417595035596149 13.116993001688737
 20 1 1 0.1293 15.898197894694945 14.114238575593449 15.032861455456517
 21 1 1 -0.0843 12.230057003827056 13.466584260053859 16.88265369223105
 22 1 1 0.0692 11.699520603699272 14.286950881261832 15.858674550231228
 23 1 2 0.0000 12.874400822283246 21.48493694255516 9.937660180872712
 24 1 6 0.3728 15.658488824612819 18.43331860042051 14.027776773909768
 25 1 7 -0.6373 12.145069148900747 14.892604962604237 12.220818301040982
 26 1 12 0.7387 18.295263322904493 20.420003065718344 13.007925738090846
 27 1 7 -0.6148 18.034217365540087 20.844936008706153 11.716416173371345
 6438 1 9 0.4551 13.107177569887558 14.921432528680047 12.379951517440082
 3240 1 12 0.7369 11.432749041466934 14.878791302998058 13.388677274088957
 28 1 2 0.0000 20.567505551266322 14.653114635753404 12.008676517956907
 29 1 1 0.1293 21.11403402754588 16.25570601073138 13.352048745602684
 30 1 1 0.0600 18.749600406737695 20.95342257831723 15.531289792634464
 31 1 11 -0.4210 19.026930993035837 15.398160279211234 16.57857710793083
 32 1 2 0.0000 21.463122008482348 15.802324418691866 16.455874028395684
 33 1 6 0.3577 19.789587966584754 15.735036183256883 16.006916155693133
 34 1 1 -0.0713 18.57894147354291 21.368624727778776 14.16786490805813
 35 1 2 0.0000 18.851615192058294 19.900900919885927 15.794480431943432
 36 1 1 -0.2772 21.259800640089377 14.983127325989281 12.779026702857779
 37 1 2 0.0000 21.520138638642297 18.727391960297915 16.571553897271887
 38 1 2 0.0000 20.28482976016864 16.891728615877305 13.049707258709415
 39 1 6 0.3728 23.78516214512122 13.075547291547299 12.071425853488257
 40 1 11 -0.4025 24.047410817096942 19.229994240485237 15.862424176340708
 41 1 10 0.5029 24.174682864572176 16.291482174086923 17.01210975673326
 42 1 11 -0.4210 24.100080004309206 16.307083756877184 15.619619695831123
 43 1 1 0.3883 23.112914358983186 15.871832306813404 14.700557676711016
 44 1 1 -0.2175 23.43448720731906 19.62923113599716 17.09495905418482
 45 1 6 0.3577 24.93414306639658 16.673551545294696 15.175852084288183
 46 1 1 -0.0399 25.044409940098916 19.276103869087294 11.48041301470339
 47 1 6 0.3503 23.356459572733325 19.029021882907305 15.158264075538522
 48 1 1 -0.3154 23.26049491862843 14.61078692489924 14.107540023683592
 49 1 1 0.0692 24.669800353617394 19.14732681193668 12.840248723812653
 50 1 2 0.0000 24.112699125427373 13.991476930687886 14.372501980842504
 51 1 2 0.0000 24.736686407547335 13.605446407522475 17.001683323906118
 52 1 10 0.5083 25.34917903361092 19.421308367560993 15.38318368919703
 53 1 8 -0.9254 22.78501375492764 13.186885618965254 12.196586979198663
 54 1 2 0.0000 23.608732510505064 19.14261967598236 13.061767142727714
 55 1 2 0.0000 21.997629089517673 17.73849276615096 14.634562917348246
 56 1 1 -0.2315 22.077338526031998 16.72489353281162 14.26147981633865
 57 1 1 0.5496 22.393003682051035 14.211669840810638 13.07919614626808
 58 1 12 0.7369 24.1948592258335 20.017494051290345 10.481087579150195
 59 1 4 -0.5758 23.049265128102984 19.685613187182064 10.243275665824587
 60 1 7 -0.6148 23.415209054199238 21.236862725096596 14.320881789285707
 61 1 6 0.3728 23.788033728522223 13.078768205039589 12.074081714572642
 62 1 7 -0.6373 24.575750874315354 21.326707203221304 10.389816013465426
 6440 1 9 0.4463 23.53503310675718 20.464717362907752 14.943962873226521
 6441 1 9 0.4551 24.399318378111282 21.67813926149048 9.495429594338475
 6439 1 9 0.4463 18.510461859231523 21.63261656561241 11.390201003148142
 63 1 1 0.1082 29.021469330623717 18.338021026529233 17.10244052757462
 64 1 6 0.3503 32.390702345032444 13.566938796599509 15.13020781105197
 65 1 1 -0.0843 25.642592001280065 19.2880128466261 13.87597380094642
 66 1 6 0.3503 30.08295395187489 15.224263803545115 16.545377446737053
 67 1 1 0.0423 30.10475168115581 13.959550881164686 14.531236510479102
 68 1 4 -0.5126 27.547184228442365 16.451974782910092 15.13844959622548
 69 1 9 0.4551 29.096270837654245 20.360536436509815 13.307549843585342
 70 1 2 0.0000 28.152804567561173 18.440322251454592 16.464613754975254
 71 1 10 0.5566 31.786799699277182 12.174773650501152 13.789043128327917
 72 1 2 0.0000 26.006783886028767 12.034149906187217 15.594977690509786
 73 1 4 -0.5853 25.87150238915181 12.566060365613067 12.084292608747601
 74 1 1 0.3365 26.463388677442463 12.431333898379162 16.497152156561416
 75 1 1 0.0692 26.976391165086135 19.510219182208516 13.456471263628506
 76 1 2 0.0000 27.718682607443395 19.7917828557524 14.195509066164659
 77 1 6 0.3503 28.446583789764983 21.02122092330506 16.98325230471482
 78 1 1 -0.0399 27.36697600080769 19.382276364115317 12.104010801761902
 79 1 4 -0.4748 26.178362502502342 19.952897850236532 16.09692392540676
 80 1 12 0.7387 27.01863750897272 12.155104997206534 12.108304353817893
 81 1 1 0.0600 29.430480178921503 12.304905085422936 12.899496015226891
 82 1 1 -0.0820 30.435081074280188 12.856839661914824 13.714125476032134
 83 1 1 0.0600 27.79892760986843 13.881273591712668 13.780593793661449
 84 1 1 -0.0820 28.79546184748305 14.491245080624324 14.568322609881609
 85 1 10 0.5566 28.47986511585766 15.712748850923841 15.406531278953352
 86 1 2 0.0000 29.681779248992925 11.45141815019127 12.278357266167365
 87 1 2 0.0000 30.871450571854336 14.402410209201884 15.154608853243197
 88 1 1 -0.0713 28.106625058789014 12.793477760728509 12.935739972762079
 89 1 12 0.7369 28.779666618935273 19.598512407859232 11.632273230064344
 90 1 7 -0.6373 29.63447696419766 20.112829838034195 12.538387511725803
 91 1 2 0.0000 26.775332366503303 14.243885551182947 13.839063834401545
 92 1 11 -0.4025 29.39703935945962 15.953626312889224 16.422949161306665
 93 1 1 -0.2175 27.765012394179177 12.066791127932525 16.87672863173963
 94 1 2 0.0000 26.661885185182996 19.088888363798016 10.082228179708206
 95 1 4 -0.5758 29.111589022175945 19.48199568252684 10.465584730104819
 96 1 1 0.0344 26.38854921077471 19.141346802772237 11.134045665442844
 97 1 1 -0.1006 14.540783275054482 16.774605700371275 21.728132046537098
 98 1 1 0.0653 14.638908155087263 15.380900270571404 21.512773822137795
 99 1 2 0.0000 13.73280945278569 14.804273519461164 21.365760114470522
 100 1 1 -0.2175 11.617235024219045 18.317752224476678 17.503031371457606
 101 1 4 -0.4675 18.310148259408802 15.246920650064292 18.72952569021368
 102 1 2 0.0000 12.711438213175455 20.916137941977993 20.216301371628678
 103 1 6 0.3503 17.983993869001836 13.419842298617173 20.803555236383854
 104 1 1 0.3365 13.825560601648291 16.814651981228444 18.3711593809777
 105 1 2 0.0000 14.672752676565938 16.24656120136006 18.74706628659974
 106 1 2 0.0000 14.987428212145288 18.599256114437797 17.992411640843418
 107 1 4 -0.4748 11.991686844401771 12.790808648659981 19.137027602790692
 108 1 2 0.0000 13.349332007121003 11.667964375863614 17.279577370075568
 109 1 10 0.5029 15.960167826696134 13.262888424367965 21.024217150070093
 110 1 1 -0.2418 13.998129466194792 18.15069879090327 17.97098422708954
 111 1 4 -0.4675 12.144942920599929 16.82017898283737 21.75761523833252
 112 1 11 -0.4025 17.221527131529076 12.761723951224957 20.714802231808495
 113 1 1 0.3365 12.890004604408288 18.905247271967134 17.547587464174065
 114 1 1 0.3365 12.012788388913945 20.83680067345384 21.042928049447397
 115 1 1 -0.2175 12.548203109970096 16.230801717061546 18.33673063439827
 116 1 10 0.5083 12.090282174529424 13.726735810724701 18.36837080530493
 117 1 6 0.3503 12.403303430144742 14.972234263472776 19.937188157656596
 118 1 11 -0.4025 12.33622873090019 14.968536547656827 18.92687801338782
 119 1 1 -0.2175 17.558470825517084 11.562799789552399 20.014598188522122
 120 1 10 0.5029 13.184450210281028 17.45634899230252 21.773794715940333
 121 1 1 -0.1006 15.88906995931099 14.72527471327692 21.434331793482503
 122 1 1 0.1082 11.44523378036205 16.986860934201932 17.91371262407905
 123 1 4 -0.4675 14.948224857874187 12.608738613928345 20.838403502039256
 124 1 1 0.0653 15.732222168341812 17.502730125720444 21.927717512335107
 125 1 6 0.3503 14.073925990840138 19.299225178098272 21.62481033845191
 126 1 11 -0.4025 13.186811114914507 18.84519993175427 21.79129354079501
 127 1 1 0.0653 17.0519871884941 15.477009495800395 21.708442013794762
 128 1 6 0.3503 13.620303837814085 12.488324118878431 23.48876406703975
 129 1 1 -0.2175 15.292865733714208 20.373813771158325 24.973123938336816
 130 1 2 0.0000 12.285449640440326 13.18215162871269 22.569903820212446
 131 1 1 0.1082 16.566342165580817 12.778058364644009 24.829364949651747
 132 1 2 0.0000 16.743058027512884 13.792580178983698 24.486153029202196
 133 1 11 -0.4025 18.179400320745074 18.581637759619014 23.377173353237655
 134 1 10 0.5029 13.839820625217607 14.218084526841752 24.580511229272858
 135 1 2 0.0000 15.692470029257997 18.57576451350173 22.0770887838684
 136 1 1 -0.1006 12.482891419274509 14.669029234634147 24.114897683098583
 137 1 1 -0.2175 17.097901145929686 18.88475140655171 24.2470536311578
 138 1 1 0.0653 11.841078190296914 15.717678833188648 24.787916537494915
 139 1 1 -0.2175 15.30125930183301 12.200254855883593 24.64236667824826
 140 1 11 -0.4025 14.522830612414076 21.568134193543163 24.87517414916386
 141 1 1 -0.2175 12.0914337996445 19.74148227974562 21.920018435909927
 142 1 2 0.0000 16.86386007762186 20.92328519025981 23.570947308350277
 143 1 1 0.1082 16.469286686911417 20.147006651515714 24.220541509874177
 144 1 11 -0.4025 14.238132304528676 12.97063064417456 24.12687261050057
 145 1 10 0.5029 18.240097615948798 17.600373426140738 22.390537658998777
 146 1 1 -0.1006 16.981422435531837 16.854560181581828 22.00097633684834
 147 1 1 0.0653 11.778572569929521 13.963074887390128 23.124226450890486
 148 1 2 0.0000 18.02174984525586 14.990877060728893 21.715362731192005
 149 1 2 0.0000 13.010983132910052 19.942146680906507 17.24858845922689
 150 1 1 0.0653 20.965296282631634 15.204593191281587 19.748545738848318
 151 1 2 0.0000 18.968320763937005 12.604133444920176 18.74083111579999
 152 1 1 0.3365 18.530161439700635 11.646007325930308 18.99925409310577
 153 1 2 0.0000 20.17115784752357 14.986484136071176 20.45584407495566
 154 1 1 -0.1006 20.667866900123023 15.385316969386423 18.390174063057056
 155 1 4 -0.5126 18.421140566637796 20.615345888467246 18.553023643099205
 156 1 1 0.3365 20.0517393125593 21.280754181874496 20.974087327136026
 157 1 2 0.0000 20.74498877218751 18.57066042038029 18.907396685358965
 158 1 1 0.0653 21.714414304498078 15.654817007591323 17.485466547730056
 159 1 10 0.5029 19.235454892348127 15.332485286035844 17.940276983624802
 160 1 1 -0.2418 21.680051683440997 19.07676542849575 18.680951960112175
 161 1 10 0.5566 19.046485151473135 21.522876369835824 18.032650641446303
 162 1 2 0.0000 19.52356407297367 20.40028417281427 20.633082455328424
 163 1 1 -0.2175 21.903245989250987 12.77150307376353 21.610454933332488
 164 1 6 0.3503 19.06917950956819 18.973571916658297 23.657007851819372
 165 1 2 0.0000 20.442290711989287 12.402099343943101 23.164015183401883
 166 1 1 0.1082 20.904843208194592 12.020670999839322 22.259917503511815
 167 1 1 -0.2418 20.42850704757756 21.33898521576212 22.322634088164644
 168 1 2 0.0000 20.17560757101116 20.511778672610202 22.97635940321982
 169 1 4 -0.4675 19.32489816848914 17.274931714514594 21.93909171317585
 170 1 2 0.0000 24.968874006010825 20.976396863826317 17.86676663867712
 171 1 1 0.0653 23.29599185556265 15.69845816278183 19.300487256154724
 172 1 11 -0.4025 24.270306660011276 21.096863903853247 20.438970035101725
 173 1 1 -0.1006 22.278507139557142 15.360142654684742 20.20867666320258
 174 1 10 0.5029 22.600271676417815 15.192236441613082 21.662813407870427
 175 1 10 0.5029 24.601366900957657 20.624237361604244 21.706192820167168
 176 1 2 0.0000 22.1256717787877 19.515026827493692 20.74056765460071
 177 1 4 -0.4675 25.213581436644688 16.688702469203815 17.507837463925252
 178 1 1 0.3365 22.459637610240012 19.615620220594156 19.71389476263973
 179 1 1 0.1082 24.077281423689655 20.40213195492888 18.089090482526153
 180 1 2 0.0000 23.286331000485507 12.83534473290642 19.94002347478106
 181 1 2 0.0000 24.29238466846481 15.872256366291102 19.69187978628834
 182 1 1 0.3365 22.50055726964223 12.27608800989227 20.440143592536376
 183 1 1 -0.2175 23.614111845531593 20.360523198640934 19.41539644189644
 184 1 1 -0.1006 23.041472151467485 15.836351163332612 17.918238281517183
 185 1 1 0.3365 22.13651181501539 19.14942787484672 17.359455112069515
 186 1 11 -0.4025 22.410683226615028 13.94057554864245 22.222857035035446
 187 1 2 0.0000 24.60588225399468 13.062382864327052 23.274880698720644
 188 1 2 0.0000 25.032019168215793 20.179316218069623 24.37502974698471
 189 1 6 0.3503 22.847375830529717 13.789158185810004 23.123484104892135
 190 1 1 0.0653 24.783264560476777 21.21572606738731 24.171412802857276
 191 1 1 -0.1006 24.65677087190399 21.639796862473148 22.824899078590448
 192 1 4 -0.4675 23.166722709792058 16.066425298193277 22.290562428318367
 193 1 2 0.0000 22.15859169256625 19.83240759743557 24.76675316036169
 194 1 4 -0.4675 24.619153304994985 19.43169835640878 21.954540335441457
 195 1 10 0.5029 28.01214358523706 21.17908711977006 18.97572491391917
 196 1 1 -0.2175 29.68986728110059 17.102454801088232 17.209065610066368
 197 1 1 -0.2175 29.456103861255087 19.445678196624677 17.856765370438442
 198 1 11 -0.4025 28.662556652267646 20.618093449843464 17.88647769198686
 199 1 2 0.0000 31.308483548291758 16.045498330562918 18.178255281761192
 200 1 1 0.0653 28.20822674257036 21.36289525745616 21.46856478348998
 201 1 2 0.0000 30.977579710690065 20.208367041704715 19.205725148421003
 202 1 11 -0.4025 28.01696649241073 13.591923398237183 20.263708684002363
 203 1 1 0.0653 27.94372633325746 19.15236311029409 20.510637360926417
 204 1 2 0.0000 27.850967939986692 18.50566366259135 19.643819240193636
 205 1 1 -0.1006 28.11653025045605 20.536755937115128 20.33408475443826
 206 1 1 -0.2418 31.278552057155576 18.11875708145482 18.763135164319255
 207 1 1 -0.2418 25.737694580412885 13.315376297414444 17.30603042943699
 208 1 1 0.3365 30.61475248343016 19.348407005858757 18.64907930902673
 209 1 1 -0.1006 27.785187216287607 18.597919086839926 21.793146928933332
 210 1 2 0.0000 32.06821594774183 14.622440367181575 21.602448421884663
 211 1 1 0.3365 30.794152615518882 16.996786951905666 18.07362040557815
 212 1 2 0.0000 29.305657534478428 12.223454307270611 18.37635829187692
 213 1 6 0.3503 28.017467354777164 14.56984224844707 20.537924317660462
 214 1 1 0.3365 26.290068270759495 13.7824783087068 18.514824685845568
 215 1 2 0.0000 25.713124724743928 14.434098207233639 19.15395057998493
 216 1 1 -0.2175 27.558395957979023 13.346945540152028 18.936553186988217
 217 1 1 0.1082 28.320063690704718 12.5575639634609 18.066835392746242
 218 1 10 0.5029 28.563810647606342 12.713494681076433 21.203880582452335
 219 1 4 -0.4675 27.43237677455513 16.406719945509998 20.929481580395052
 220 1 4 -0.5126 31.754097778141364 13.153339615302043 19.402602986883313
 221 1 2 0.0000 32.10619239645883 12.507218090470518 17.202957715094232
 222 1 2 0.0000 32.16627287063251 18.033092113737787 19.3844452980429
 223 1 1 -0.2175 27.207769372254955 15.253129495757799 23.570113511683452
 224 1 1 0.0653 27.757381182235353 19.463562707494898 22.909330619257698
 225 1 6 0.3503 31.361279488455125 15.836927431603012 22.768940987858866
 226 1 1 0.3365 31.157643798194222 20.306146250301072 24.310142381411957
 227 1 1 -0.2175 27.51934755731221 13.316442177765317 25.024001398806217
 228 1 1 -0.2418 25.562470036206275 13.457980980398313 23.591301301488535
 229 1 6 0.3503 27.746693956392807 17.201523243824045 23.964627635230727
 230 1 10 0.5029 27.583429177799673 17.106500491049108 21.916163160448775
 231 1 1 0.3365 26.03975390202642 14.663320881982516 23.05422571516838
 232 1 11 -0.4025 31.765902711592556 16.158054870985342 23.63735850701402
 233 1 1 0.1082 27.932224892562584 14.586040582778615 24.574406373681125
 234 1 1 -0.2418 31.01294925964028 19.746153167850622 23.030375177098914
 235 1 1 0.3365 31.194793707855727 18.368323055176827 22.83731830972867
 236 1 2 0.0000 28.829122869045946 15.042564464806944 24.97958526797671
 237 1 2 0.0000 27.55365011992747 19.051606908965258 23.890434974882602
 238 1 4 -0.4675 29.152448915774283 13.170097492612843 22.165690221043118
 239 1 11 -0.4025 27.575822317895987 16.571506370745617 23.194792151591727
 240 1 1 -0.1006 28.01785578404281 20.84670933222715 22.766140701202342
 241 1 1 -0.2175 31.534261182427304 17.536037303554647 23.91790521196838
 242 1 2 0.0000 25.471036788695283 15.170790416411137 22.28334488387495
 243 1 2 0.0000 25.976248912644483 11.802369230238995 24.91470877420792
 244 1 1 0.3365 26.32163250617193 12.763983482993682 24.54356826805908
 245 1 2 0.0000 31.02704141971855 21.376552095590785 24.447194460628275
 246 1 2 0.0000 30.760090209304785 20.378850121733002 22.184753099841725
 247 1 2 0.0000 31.087255894693335 17.948531137973433 21.840244307459685
 248 1 10 0.5029 28.184703443829285 21.762487508548443 23.960631575477226
 249 1 1 0.0423 32.44807338447312 13.776197542569497 22.168724854109502
 250 1 2 0.0000 11.699158930125883 11.290215891680944 28.950997503762903
 251 1 2 0.0000 14.954298594930663 12.603732017023983 28.87547653435795
 252 1 4 -0.4675 12.809230662329794 15.922412825497995 28.636901941486276
 253 1 1 0.3365 16.622829622679713 17.892705954485184 25.1180080133523
 254 1 2 0.0000 17.11666151899238 16.926477431040208 25.16266738793406
 255 1 1 0.0423 14.038987294670617 20.839297823386563 31.932446179013326
 256 1 6 0.3503 13.3014292522587 12.863295537642694 29.203224106960036
 257 1 1 -0.2175 17.586480821082407 12.032560274797161 25.441251135668413
 258 1 10 0.5029 13.378767117365063 14.865765993972188 28.852405203375152
 259 1 2 0.0000 15.133219773235027 17.368667979343197 26.582912824296507
 260 1 1 -0.2418 15.497174028214532 18.138534211378133 25.9153008299622
 261 1 1 0.3365 14.822371793482214 19.36423838719664 25.828744734534776
 262 1 10 0.5029 17.820723518999067 17.159636100863167 28.50005339740839
 263 1 1 -0.0820 14.004648592428152 21.23457980000765 30.579610830231218
 264 1 11 -0.4025 11.804028362193224 20.202963217724864 30.251271986613695
 265 1 1 -0.2418 17.57418331249528 16.121922719801475 32.008944524104905
 266 1 1 0.0653 15.538740706068578 13.515467537886334 28.86134719275231
 267 1 4 -0.4675 14.441614901163847 14.80783886102775 25.463301445737297
 268 1 2 0.0000 13.918960949820722 19.519558365881284 26.412209044613867
 269 1 1 0.0600 15.215360058615262 21.5622189932325 29.940302615829328
 270 1 4 -0.4675 17.31097808498969 18.24789416588543 28.70770477010852
 271 1 1 0.0600 16.467063270777636 20.83562053884406 31.897087896877636
 272 1 1 0.3365 16.382003983241283 15.55248463340859 32.48111491889766
 273 1 1 0.0653 17.69471244410823 14.619382110467706 28.756182993534264
 274 1 1 -0.0713 16.450528595093427 21.328465406178747 30.57526908451813
 275 1 11 -0.4025 12.71399213556086 13.681348553079447 29.12608835558558
 276 1 6 0.3503 11.990135290044831 19.806501066318027 31.162839930094474
 277 1 10 0.5029 17.652092271865346 12.110817051384052 29.00913348587317
 278 1 1 -0.1006 16.94471835761454 13.434317224156691 28.87318144175622
 279 1 10 0.5566 12.75623483781483 21.08056726958463 29.74520067383209
 280 1 2 0.0000 17.415527361223525 20.62739216671946 32.38490024516062
 281 1 1 0.0653 15.655484942080745 15.932245034486279 28.790285194967073
 282 1 1 -0.1006 17.05638228604952 15.87685985637771 28.697939143441385
 283 1 1 -0.1006 14.881851194002751 14.761531892749943 28.837956318779305
 284 1 2 0.0000 15.158556539186515 16.897060353867836 28.773730236390772
 285 1 2 0.0000 12.39644553222892 16.260861390665106 25.54680824524876
 286 1 4 -0.5126 14.714910439093186 12.048351922627237 31.581815662667143
 287 1 4 -0.5126 12.708219511272995 21.493349131888504 28.59690970155198
 288 1 2 0.0000 12.063833036796288 18.694105145745585 28.071985904758773
 289 1 12 0.7387 17.740635643215267 21.485613782803505 29.81973232707607
 290 1 2 0.0000 17.629293680766768 17.191752197906002 31.823129559529264
 291 1 1 -0.2175 11.330016234025214 13.400276039296271 29.244190805727712
 292 1 10 0.5566 14.370967189647923 12.571071170792838 32.6302867612674
 293 1 1 -0.2175 16.299094519528907 14.170143442190053 32.70262566574594
 294 1 1 -0.0820 15.262953568961626 20.591783861240955 32.582519198624006
 295 1 4 -0.4675 12.4395540020339 15.742629919620734 32.80353166612269
 296 1 1 0.0423 12.120071979764326 11.456924232910726 32.598402552359836
 297 1 2 0.0000 17.36087450028775 12.29039593106436 32.632320774092285
 298 1 1 0.1082 17.422836645521546 13.359848469467009 32.45234855296802
 299 1 2 0.0000 13.115843058036972 20.600802747600262 32.45293824834083
 300 1 2 0.0000 15.513163908461028 16.178768093079146 32.652031347352
 301 1 6 0.3503 13.924069359018082 21.75168505545884 25.66971079232151
 2681 1 6 0.3503 15.877951711637422 11.256532754623077 29.551333428916134
 302 1 2 0.0000 21.10557460166968 15.851056345347606 25.145992708200936
 303 1 2 0.0000 18.77875320140633 14.5535253907954 28.73873626226659
 304 1 1 0.3365 19.466590424624382 19.155716988313213 26.74792361234236
 305 1 2 0.0000 21.346870245827176 21.56096875210807 31.250434683174728
 306 1 1 -0.2175 19.937670928515285 17.979939340295758 27.367417447292905
 307 1 1 0.3365 21.558237977312892 19.338602613336043 25.52536223873383
 308 1 4 -0.4675 18.85383434054302 12.016514582336825 28.827672779373923
 309 1 10 0.5566 20.874480240256116 13.184660316459349 30.99670689831659
 310 1 11 -0.4025 19.0729061532294 17.009966650261205 27.93386973308143
 311 1 6 0.3503 19.359125825685357 16.05655655359589 27.752128931583083
 312 1 10 0.5029 19.434869009920945 13.763743610954274 25.595238632007618
 313 1 2 0.0000 21.051896022491675 11.794286614682312 26.62288898895379
 314 1 6 0.3503 19.58615029855626 11.731676451723478 25.65767532920009
 315 1 1 0.3365 18.685176969885724 15.305549209750795 31.73992942444575
 316 1 4 -0.5853 18.785964252823362 20.990224456103554 30.189856313883517
 317 1 11 -0.4025 18.91875993638721 12.481972299931 25.54156747925651
 318 1 4 -0.5126 21.10727543553143 14.167421618782807 30.3155157324309
 319 1 1 -0.1006 20.912738999626725 13.822778939217153 25.858597527778606
 320 1 4 -0.4675 18.759610494554597 14.771587516410213 25.484540610225203
 321 1 2 0.0000 19.578462373908692 15.767460003809047 31.33822175528077
 322 1 2 0.0000 18.444487807306295 19.49481875996323 26.887491042406484
 323 1 1 -0.2175 18.62402129387969 13.915007527674799 31.970276546639916
 324 1 1 0.3365 21.414282296815717 20.527164419248965 31.578495128222862
 325 1 2 0.0000 19.931094176647022 20.7565487049812 25.37093144512228
 326 1 2 0.0000 21.639952477404886 16.7092489935427 27.699433411370446
 327 1 1 0.1082 21.267931343084545 17.58057762562455 27.168997567153024
 328 1 11 -0.4025 19.735990259307844 13.039908908290824 31.78550979990072
 329 1 1 -0.2418 20.29386338949143 19.852899709492252 25.853186608577808
 330 1 1 0.0653 21.59185385057098 12.70702270654374 26.393666929498337
 331 1 1 0.0653 21.62452428824094 15.01080706132033 25.597822411654242
 332 1 6 0.3503 19.67412560638523 12.181343034111233 32.31932971708134
 333 1 1 -0.2175 21.565798786095485 17.8463445105212 32.40683600340924
 334 1 11 -0.4025 21.50750914794417 16.511634679155517 32.87245468433252
 335 1 1 -0.2175 20.97042648873349 20.16651594148807 32.861465202776046
 336 1 10 0.5029 24.34381447081117 21.612586535923086 26.68258454679736
 337 1 10 0.5029 25.280824455935807 15.642334504261463 29.49338091753429
 338 1 6 0.3503 23.935177491882467 18.37098010810935 25.441840770316713
 339 1 1 -0.2175 22.035628414854855 18.17519177861239 26.152956593345976
 340 1 1 -0.2175 25.15763966211336 18.111231882386193 29.943763646661818
 341 1 1 0.1082 25.083686664084393 18.618361006150714 28.63672663954424
 342 1 1 -0.2175 25.202459943168016 19.994080437429403 28.39393356277986
 343 1 11 -0.4025 24.8290670337419 16.75814185255369 30.17029988270612
 344 1 2 0.0000 24.866169039165595 17.94275310297904 27.819846908726078
 345 1 1 0.3365 21.980749389990265 18.204431933700295 31.109778618263213
 346 1 1 -0.1006 22.99309637525745 15.116355758543884 25.91520577472682
 347 1 4 -0.4675 24.835573855388223 11.721682084978188 27.669371607736156
 348 1 10 0.5029 23.71974749319061 11.57710484198 27.208735137902835
 349 1 11 -0.4025 25.060487177408447 20.486967636534448 27.06368642577285
 350 1 10 0.5029 23.81445107685978 16.368059087196063 25.674125400012127
 351 1 2 0.0000 23.570287840495137 13.33636096329782 31.294631755077187
 352 1 6 0.3503 23.923431307991578 16.639009426732002 30.61080555338736
 353 1 1 0.0423 23.239918752558708 12.306498864724261 31.210725288274872
 354 1 2 0.0000 24.71547060937716 14.017434751315443 26.596023081721707
 355 1 4 -0.4675 24.530803767396012 14.686636165368675 29.409996140280864
 356 1 1 0.0653 23.649863105112427 13.971000355499582 26.409232146665296
 357 1 2 0.0000 22.194428094518898 19.830766414441175 29.68809676445065
 358 1 4 -0.4675 25.013030182022646 16.279834463498236 25.48159406016829
 359 1 1 -0.1006 22.968313545847018 12.764768393733764 26.659008362699502
 360 1 11 -0.4025 23.285505215122225 17.653611058802632 25.728757847328335
 361 1 2 0.0000 22.337746588707816 17.453502516684107 30.414644822159836
 362 1 1 -0.2418 21.89847143197719 19.54686559401055 30.695623639140127
 363 1 1 -0.0820 21.85841560438569 12.049586944306371 31.078338170639395
 364 1 4 -0.5126 23.703393054041012 15.937515322537422 32.82761149705837
 365 1 1 -0.0820 24.168737728884338 11.248558911762323 31.335868696998347
 366 1 1 0.3365 25.38246074592364 18.976563812054046 31.027517137922747
 382 1 2 0.0000 25.41362887526242 18.59269720026367 32.04587966996324
 367 1 6 0.3503 25.49344408287436 19.936495943036814 26.337576778797548
 368 1 1 0.1082 32.13424771547191 17.592361479649597 31.82169673562618
 369 1 1 0.0653 27.709248846405174 16.505560039764575 29.23612670215891
 370 1 11 -0.4025 27.874773343766137 21.221603328694783 25.20032822516419
 371 1 1 0.0653 27.037486314011417 14.426829768053816 28.198451193296957
 372 1 1 0.3365 30.20345367425378 13.839960385884796 32.07000409623682
 373 1 2 0.0000 27.52771812595287 17.347219580129387 29.894248680745783
 374 1 1 0.0653 29.33850345949735 15.150836397504257 28.035735143652293
 375 1 2 0.0000 31.12861426959442 17.81230405535647 32.158990965774564
 376 1 6 0.3503 27.432201337365253 20.314639057619377 25.191992010166214
 377 1 1 0.3365 27.811739571989474 14.263379793364017 32.23081723286623
 378 1 10 0.5029 28.717378638603762 12.866692403260343 27.193702354456
 379 1 1 0.1082 28.624417882135873 12.310337764075724 31.042010772706693
 380 1 1 -0.2175 27.548764800122367 13.090356181031972 31.5037814738645
 381 1 11 -0.4025 31.06876848054239 11.799378276745339 31.117272350468603
 383 1 1 -0.2175 31.49618593842201 19.49060436414438 25.403610901841585
 384 1 1 -0.1006 28.345810033445957 14.204141785515732 27.752350409390907
 385 1 6 0.3503 25.618932486696387 13.37589006519376 30.794002911323467
 386 1 2 0.0000 26.31107474108219 13.64069499817992 28.05161432745682
 387 1 6 0.3503 31.14522084453023 20.879743726588096 26.908019789660695
 388 1 1 0.3365 28.661701916147237 20.942584957195 27.50181604810523
 389 1 2 0.0000 25.653840012982485 21.029061967424582 31.635769444156093
 390 1 11 -0.4025 26.20397729104813 12.692840260049657 31.258520734828938
 391 1 4 -0.4675 29.257131867664405 12.0301339378121 27.89175074714656
 392 1 6 0.3503 31.956218813430162 12.288774490423778 31.097144298435552
 393 1 2 0.0000 30.363438505430693 14.962291093956702 27.73010955551936
 394 1 2 0.0000 28.95047724172722 19.91801537049519 27.284374887024672
 395 1 1 0.1082 31.647479527622487 18.09952719833746 25.207416889511947
 396 1 6 0.3503 31.063594228751388 15.354270061637632 29.912597903461222
 397 1 2 0.0000 29.260475844571395 20.800589256131182 29.58289368285355
 398 1 10 0.5566 25.639897508412474 11.472905611581767 31.609078718572125
 399 1 1 -0.1006 26.687305119769714 15.575844206185266 28.93387010771411
 400 1 2 0.0000 32.00431444638376 13.383683809287954 27.35173556808072