Random packing of 2 x 'MPD-L.lmps', 1 x 'TMC-L.lmps'

45 atoms
45 bonds
64 angles
109 dihedrals
0 impropers

12 atom types
17 bond types
23 angle types
42 dihedral types

0.000000 65.000000 xlo xhi
0.000000 65.000000 ylo yhi
0.000000 65.000000 zlo zhi

Masses

 1 12.0100000 # ca
 2 1.0080000 # ha
 3 12.0100000 # c
 4 16.0000000 # o
 5 14.0100000 # n
 6 1.0080000 # hn
 7 16.0000000 # oh
 8 14.0100000 # nh
 9 1.0080000 # ho
 10 12.0100000 # c
 11 14.0100000 # n
 12 12.0100000 # c


Atoms

 1 1 1 -0.19950000 24.6210002506298 33.0855892484867 21.2186873788013
 2 1 1 -0.07600000 25.9795146390549 33.1893637537428 20.9060062177109
 3 1 1 -0.19950000 26.6987176514306 32.0489112316697 20.5369329568444
 4 1 1 0.01500000 23.9816888745805 31.8413622211573 21.1622952790252
 5 1 1 0.00500000 24.7054583967851 30.7097970349937 20.7936248188714
 6 1 1 0.01500000 26.0639727852102 30.8135715402499 20.480943657781
 7 1 2 0.13800000 24.0736966454583 33.9727855150956 21.5028379520569
 8 1 2 0.13600000 26.4726977005786 34.1491960319683 20.9495086946811
 9 1 2 0.13800000 27.7569229468779 32.1350381216473 20.2942732949514
 10 1 11 -0.21550000 26.7751375990554 29.6994612769116 20.1183103324056
 11 1 8 -0.21550000 22.6580643330959 31.7425110073464 21.4673305404424
 12 1 2 0.17200000 24.2077088254324 29.7410774208587 20.7497195411886
 13 1 6 0.14300000 22.1354227340798 32.5727389630277 21.7357840756829
 14 1 6 0.14300000 27.7589966907928 29.7668542480893 19.8905396691465
 15 2 1 -0.19950000 30.0160617781591 9.91378567898747 44.8651563410542
 16 2 1 -0.07600000 30.1431487007165 10.4680138401915 43.5881363492595
 17 2 1 -0.19950000 29.1688287945807 10.2144561507099 42.6183378038841
 18 2 1 0.01500000 28.9146549494658 9.1059998283018 45.1723777874734
 19 2 1 0.00500000 27.9482022349636 8.85821203775363 44.200384803195
 20 2 1 0.01500000 28.075289157521 9.41244019895765 42.9233648114003
 21 2 2 0.13800000 30.7743468530143 10.1155832035093 45.6079089945994
 22 2 2 0.13600000 30.992805397137 11.0911629250062 43.3511369477361
 23 2 2 0.13800000 29.2724338366709 10.6485899488354 41.6249124968888
 24 2 11 -0.21550000 27.1237055601364 9.16793742741136 41.96774613646
 25 2 8 -0.21550000 28.7927995219492 8.5670387848621 46.4171557791005
 26 2 2 0.17200000 27.0906783469095 8.2292930540055 44.4395786436214
 27 2 6 0.14300000 29.5021110165601 8.75196891347906 47.1222643176551
 28 2 6 0.14300000 27.2089804205113 9.56576709107477 41.0409992687029
 29 3 1 -0.18050000 25.1518688391064 13.5106845806391 53.3476541057929
 30 3 1 -0.03400000 24.256238105073 14.0997084338323 52.4396362157576
 31 3 1 -0.18050000 23.050642774185 14.6220609197894 52.9099422635133
 32 3 1 -0.10450000 24.835542903513 13.4628031849583 54.7034731477077
 33 3 1 -0.14500000 23.624451775833 13.9901859915272 55.1617587091103
 34 3 1 -0.10450000 22.7296865837463 14.5654501937769 54.2642252285983
 35 3 2 0.15350000 26.0939952604301 13.093538493519 53.0085568509466
 36 3 2 0.15350000 22.3510294668166 15.0809718432678 52.2155778170839
 37 3 2 0.13200000 23.3816644799558 13.9430821088518 56.2263880122941
 38 3 10 0.29650000 25.8008307341743 12.8295869862271 55.6526605104773
 39 3 10 0.29650000 21.4345134126532 15.1362535316207 54.7292091061542
 40 3 12 0.35200000 24.5707757789972 14.1687916519286 50.9687203239882
 41 3 4 -0.36700000 23.8228400243688 14.6645548562866 50.145488307997
 42 3 4 -0.09550000 25.6315082440045 12.7310029493945 56.8534981689493
 43 3 4 -0.09550000 21.0620326074946 15.1407784672128 55.8913784461156
 44 3 7 -0.31800000 25.7166088791537 13.6592146850179 50.6059561838364
 45 3 9 0.24200000 25.7690177152954 13.7781650764788 49.6417963847027
 46 1 6 0.0 1 1 1
 47 2 6 0.0 1 1 1

Bonds

 1 1 1 2
 2 1 1 4
 3 3 1 7
 4 1 2 3
 5 3 2 8
 6 1 3 6
 7 3 3 9
 8 1 4 5
 9 8 4 11
 10 1 5 6
 11 3 5 12
 12 6 6 10
 13 7 10 14
 14 7 11 13
 15 1 15 16
 16 1 15 18
 17 3 15 21
 18 1 16 17
 19 3 16 22
 20 1 17 20
 21 3 17 23
 22 1 18 19
 23 8 18 25
 24 1 19 20
 25 3 19 26
 26 6 20 24
 27 7 24 28
 28 7 25 27
 29 1 29 30
 30 1 29 32
 31 3 29 35
 32 1 30 31
 33 16 30 40
 34 1 31 34
 35 3 31 36
 36 1 32 33
 37 2 32 38
 38 1 33 34
 39 3 33 37
 40 2 34 39
 41 4 38 42
 42 4 39 43
 43 17 40 41
 44 14 40 44
 45 15 44 45
 46 0 10 38
 47 0 24 39
 48 0 11 46
 49 0 25 27

Angles

 1 1 1 2 3
 2 2 1 2 8
 3 1 1 4 5
 4 9 1 4 11
 5 1 2 1 4
 6 2 2 1 7
 7 1 2 3 6
 8 2 2 3 9
 9 2 3 2 8
 10 1 3 6 5
 11 9 3 6 10
 12 2 4 1 7
 13 1 4 5 6
 14 2 4 5 12
 15 10 4 11 13
 16 9 5 4 11
 17 9 5 6 10
 18 2 6 3 9
 19 2 6 5 12
 20 10 6 10 14
 21 1 15 16 17
 22 2 15 16 22
 23 1 15 18 19
 24 9 15 18 25
 25 1 16 15 18
 26 2 16 15 21
 27 1 16 17 20
 28 2 16 17 23
 29 2 17 16 22
 30 1 17 20 19
 31 9 17 20 24
 32 2 18 15 21
 33 1 18 19 20
 34 2 18 19 26
 35 10 18 25 27
 36 9 19 18 25
 37 9 19 20 24
 38 2 20 17 23
 39 2 20 19 26
 40 10 20 24 28
 41 1 29 30 31
 42 23 29 30 40
 43 1 29 32 33
 44 4 29 32 38
 45 1 30 29 32
 46 2 30 29 35
 47 1 30 31 34
 48 2 30 31 36
 49 22 30 40 41
 50 19 30 40 44
 51 23 31 30 40
 52 1 31 34 33
 53 4 31 34 39
 54 2 32 29 35
 55 1 32 33 34
 56 2 32 33 37
 57 3 32 38 42
 58 4 33 32 38
 59 4 33 34 39
 60 2 34 31 36
 61 2 34 33 37
 62 3 34 39 43
 63 20 40 44 45
 64 21 41 40 44

Dihedrals

 1 1 1 2 3 6
 2 11 1 2 3 9
 3 2 1 3 2 8
 4 1 1 4 5 6
 5 11 1 4 5 12
 6 37 1 4 11 13
 7 25 1 5 4 11
 8 1 2 1 4 5
 9 14 2 1 4 11
 10 1 2 3 6 5
 11 14 2 3 6 10
 12 2 2 6 3 9
 13 25 3 5 6 10
 14 1 3 6 5 4
 15 11 3 6 5 12
 16 37 3 6 10 14
 17 1 4 1 2 3
 18 11 4 1 2 8
 19 14 4 5 6 10
 20 2 4 6 5 12
 21 37 5 4 11 13
 22 11 5 6 3 9
 23 37 5 6 10 14
 24 11 6 3 2 8
 25 14 6 5 4 11
 26 11 7 1 2 3
 27 19 7 1 2 8
 28 2 7 1 4 2
 29 11 7 1 4 5
 30 16 7 1 4 11
 31 19 8 2 3 9
 32 16 9 3 6 10
 33 16 10 6 5 12
 34 16 11 4 5 12
 35 1 15 16 17 20
 36 11 15 16 17 23
 37 2 15 17 16 22
 38 1 15 18 19 20
 39 11 15 18 19 26
 40 37 15 18 25 27
 41 25 15 19 18 25
 42 1 16 15 18 19
 43 14 16 15 18 25
 44 1 16 17 20 19
 45 14 16 17 20 24
 46 2 16 20 17 23
 47 25 17 19 20 24
 48 1 17 20 19 18
 49 11 17 20 19 26
 50 37 17 20 24 28
 51 1 18 15 16 17
 52 11 18 15 16 22
 53 14 18 19 20 24
 54 2 18 20 19 26
 55 37 19 18 25 27
 56 11 19 20 17 23
 57 37 19 20 24 28
 58 11 20 17 16 22
 59 14 20 19 18 25
 60 11 21 15 16 17
 61 19 21 15 16 22
 62 2 21 15 18 16
 63 11 21 15 18 19
 64 16 21 15 18 25
 65 19 22 16 17 23
 66 16 23 17 20 24
 67 16 24 20 19 26
 68 16 25 18 19 26
 69 1 29 30 31 34
 70 11 29 30 31 36
 71 39 29 30 40 41
 72 38 29 30 40 44
 73 42 29 31 30 40
 74 1 29 32 33 34
 75 11 29 32 33 37
 76 3 29 32 38 42
 77 1 30 29 32 33
 78 9 30 29 32 38
 79 1 30 31 34 33
 80 9 30 31 34 39
 81 2 30 34 31 36
 82 35 30 40 44 45
 83 21 30 41 40 44
 84 39 31 30 40 41
 85 38 31 30 40 44
 86 1 31 34 33 32
 87 11 31 34 33 37
 88 3 31 34 39 43
 89 1 32 29 30 31
 90 40 32 29 30 40
 91 9 32 33 34 39
 92 2 32 34 33 37
 93 3 33 32 38 42
 94 11 33 34 31 36
 95 3 33 34 39 43
 96 40 34 31 30 40
 97 9 34 33 32 38
 98 11 35 29 30 31
 99 41 35 29 30 40
 100 2 35 29 32 30
 101 11 35 29 32 33
 102 12 35 29 32 38
 103 41 36 31 30 40
 104 12 36 31 34 39
 105 12 37 33 32 38
 106 12 37 33 34 39
 107 22 38 29 32 33
 108 22 39 31 34 33
 109 36 41 40 44 45

