Random packing of 2 x 'MPD-L.lmps', 1 x 'TMC-L.lmps'

45 atoms
45 bonds
64 angles
109 dihedrals
0 impropers

12 atom types

0.000000 65.000000 xlo xhi
0.000000 65.000000 ylo yhi
0.000000 65.000000 zlo zhi

Masses

   1	12.01	# ca
   2	1.008	# ha
   3	12.01	# c
   4	16.0	# o
   5	14.01	# n
   6	1.008	# hn
   7	16.0	# oh
   8	14.01	# nh
   9	1.008	# ho
  10	12.01	# c
  11	14.01	# n
  12	12.01	# c

Pair Coeffs

   1	None	None	# ca
   2	None	None	# ha
   3	None	None	# c
   4	None	None	# o
   5	None	None	# n
   6	None	None	# hn
   7	None	None	# oh
   8	None	None	# nh
   9	None	None	# ho
  10	None	None	# c
  11	None	None	# n
  12	None	None	# c

Atoms

   1	1	1	-0.07355739819843822	24.6210002506298	33.0855892484867	21.2186873788013
   2	1	1	-0.08192990438351495	25.9795146390549	33.1893637537428	20.9060062177109
   3	1	1	-0.07355739819843822	26.6987176514306	32.0489112316697	20.5369329568444
   4	1	1	-0.03627191526029526	23.9816888745805	31.8413622211573	21.1622952790252
   5	1	1	-0.06360381436608585	24.7054583967851	30.7097970349937	20.7936248188714
   6	1	1	-0.03627191526029526	26.0639727852102	30.8135715402499	20.480943657781
   7	1	2	0.08507640400709389	24.0736966454583	33.9727855150956	21.5028379520569
   8	1	2	0.08374415009920337	26.4726977005786	34.1491960319683	20.9495086946811
   9	1	2	0.08507640400709389	27.7569229468779	32.1350381216473	20.2942732949514
  10	1	11	-0.07273210150189895	26.7751375990554	29.6994612769116	20.1183103324056
  11	1	8	-0.07273210150189895	22.6580643330959	31.7425110073464	21.4673305404424
  12	1	2	0.08650857150927906	24.2077088254324	29.7410774208587	20.7497195411886
  13	1	6	0.08512550952409774	22.1354227340798	32.5727389630277	21.7357840756829
  14	1	6	0.08512550952409774	27.7589966907928	29.7668542480893	19.8905396691465
  15	2	1	-0.07355739819843822	30.0160617781591	9.91378567898747	44.8651563410542
  16	2	1	-0.08192990438351495	30.1431487007165	10.4680138401915	43.5881363492595
  17	2	1	-0.07355739819843822	29.1688287945807	10.2144561507099	42.6183378038841
  18	2	1	-0.03627191526029526	28.9146549494658	9.1059998283018	45.1723777874734
  19	2	1	-0.06360381436608585	27.9482022349636	8.85821203775363	44.200384803195
  20	2	1	-0.03627191526029526	28.075289157521	9.41244019895765	42.9233648114003
  21	2	2	0.08507640400709389	30.7743468530143	10.1155832035093	45.6079089945994
  22	2	2	0.08374415009920337	30.992805397137	11.0911629250062	43.3511369477361
  23	2	2	0.08507640400709389	29.2724338366709	10.6485899488354	41.6249124968888
  24	2	11	-0.07273210150189895	27.1237055601364	9.16793742741136	41.96774613646
  25	2	8	-0.07273210150189895	28.7927995219492	8.5670387848621	46.4171557791005
  26	2	2	0.08650857150927906	27.0906783469095	8.2292930540055	44.4395786436214
  27	2	6	0.08512550952409774	29.5021110165601	8.75196891347906	47.1222643176551
  28	2	6	0.08512550952409774	27.2089804205113	9.56576709107477	41.0409992687029
  29	3	1	-0.04614803370295506	25.1518688391064	13.5106845806391	53.3476541057929
  30	3	1	0.04104420954963751	24.256238105073	14.0997084338323	52.4396362157576
  31	3	1	-0.04614803370295506	23.050642774185	14.6220609197894	52.9099422635133
  32	3	1	0.053519875716250206	24.835542903513	13.4628031849583	54.7034731477077
  33	3	1	-0.04137901726653232	23.624451775833	13.9901859915272	55.1617587091103
  34	3	1	0.053519875716250206	22.7296865837463	14.5654501937769	54.2642252285983
  35	3	2	0.08806678210593777	26.0939952604301	13.093538493519	53.0085568509466
  36	3	2	0.08806678210593777	22.3510294668166	15.0809718432678	52.2155778170839
  37	3	2	0.08890253105018854	23.3816644799558	13.9430821088518	56.2263880122941
  38	3	10	0.13128216313950758	25.8008307341743	12.8295869862271	55.6526605104773
  39	3	10	0.13128216313950758	21.4345134126532	15.1362535316207	54.7292091061542
  40	3	12	0.276567817066483	24.5707757789972	14.1687916519286	50.9687203239882
  41	3	4	-0.2623458649488751	23.8228400243688	14.6645548562866	50.145488307997
  42	3	4	-0.23289525323914817	25.6315082440045	12.7310029493945	56.8534981689493
  43	3	4	-0.23289525323914817	21.0620326074946	15.1407784672128	55.8913784461156
  44	3	7	-0.37902868728692646	25.7166088791537	13.6592146850179	50.6059561838364
  45	3	9	0.2885879437968401	25.7690177152954	13.7781650764788	49.6417963847027

Velocities

   1	0.0	0.0	0.0
   2	0.0	0.0	0.0
   3	0.0	0.0	0.0
   4	0.0	0.0	0.0
   5	0.0	0.0	0.0
   6	0.0	0.0	0.0
   7	0.0	0.0	0.0
   8	0.0	0.0	0.0
   9	0.0	0.0	0.0
  10	0.0	0.0	0.0
  11	0.0	0.0	0.0
  12	0.0	0.0	0.0
  13	0.0	0.0	0.0
  14	0.0	0.0	0.0
  15	0.0	0.0	0.0
  16	0.0	0.0	0.0
  17	0.0	0.0	0.0
  18	0.0	0.0	0.0
  19	0.0	0.0	0.0
  20	0.0	0.0	0.0
  21	0.0	0.0	0.0
  22	0.0	0.0	0.0
  23	0.0	0.0	0.0
  24	0.0	0.0	0.0
  25	0.0	0.0	0.0
  26	0.0	0.0	0.0
  27	0.0	0.0	0.0
  28	0.0	0.0	0.0
  29	0.0	0.0	0.0
  30	0.0	0.0	0.0
  31	0.0	0.0	0.0
  32	0.0	0.0	0.0
  33	0.0	0.0	0.0
  34	0.0	0.0	0.0
  35	0.0	0.0	0.0
  36	0.0	0.0	0.0
  37	0.0	0.0	0.0
  38	0.0	0.0	0.0
  39	0.0	0.0	0.0
  40	0.0	0.0	0.0
  41	0.0	0.0	0.0
  42	0.0	0.0	0.0
  43	0.0	0.0	0.0
  44	0.0	0.0	0.0
  45	0.0	0.0	0.0

Bonds

