LAMMPS data file via write_data, version 29 Oct 2020, timestep = 212

6739 atoms
14 atom types
7169 bonds
18 bond types
11129 angles
23 angle types
19475 dihedrals
42 dihedral types

11.246593 53.753407 xlo xhi
11.246593 53.753407 ylo yhi
1.27354 64.665814 zlo zhi

Masses

1 12.01
2 1.008
3 12.01
4 16
5 14.01
6 1.008
7 16
8 14.01
9 1.008
10 12.01
11 14.01
12 12.01
13 1.008
14 16

Pair Coeffs # lj/cut/coul/long/omp

1 0.086 3.39967
2 0.015 2.59964
3 0.086 3.39967
4 0.21 2.95992
5 0.17 3.25
6 0.0157 1.06908
7 0.2104 3.06647
8 0.17 3.25
9 0 0
10 0.086 3.39967
11 0.17 3.25
12 0.086 3.39967
13 0.0157 1.06908
14 0.2104 3.06647

Atoms # full

 1 1 1 0.0400 13.474059 19.026296 12.845051
 2 1 6 0.1570 15.622357 18.391134 13.978627
 3 1 12 0.2765 13.412052 18.461353 14.214491
 4 1 1 -0.0510 12.391401 18.806153 11.994348
 5 1 1 0.0400 11.773183 13.878650 14.504820
 6 1 1 -0.0521 12.896177 12.275714 16.533614
 7 1 2 0.0866 14.473554 15.333315 13.927360
 8 1 4 -0.2623 18.008220 19.130782 13.600477
 9 1 1 -0.0510 14.462701 19.982100 12.520202
 10 1 1 -0.0632 17.122851 14.131971 15.709032
 11 1 4 -0.2623 12.802633 17.464239 14.561169
 12 1 1 0.0077 17.773514 15.349255 15.965646
 13 1 1 -0.0444 17.264131 16.547377 15.468584
 14 1 1 -0.0091 16.116321 16.511360 14.667980
 15 1 8 -0.3506 15.938634 17.480827 13.680176
 16 1 2 0.0896 17.913886 17.416296 15.498081
 17 1 2 0.0872 11.678544 18.016777 12.221689
 18 1 1 0.0400 13.030940 11.899518 15.186666
 19 1 1 -0.0645 15.364218 15.338699 14.549991
 20 1 1 -0.0510 12.417415 12.666554 14.173013
 21 1 1 0.0400 14.265658 20.866829 11.455484
 22 1 2 0.0839 15.372761 13.207804 14.800748
 23 1 2 0.0866 17.584101 13.201197 16.020565
 24 1 2 0.0872 15.347131 20.100631 13.138247
 25 1 2 0.0872 12.449763 12.330412 13.139376
 26 1 1 -0.0801 15.899424 14.130771 15.016723
 27 1 1 0.0278 12.237724 13.461395 16.885500
 28 1 1 -0.0521 11.686695 14.261984 15.860974
 29 1 1 0.0400 12.158165 19.707689 10.948910
 30 1 1 -0.0510 13.089229 20.741838 10.696245
 31 1 2 0.0872 12.874367 21.484889 9.937307
 32 1 6 0.1570 15.615067 18.395339 14.023643
 33 1 7 -0.3790 14.082486 19.242798 15.078103
 34 1 7 -0.3790 11.859614 14.782588 12.259922
 35 1 12 0.2765 18.108207 20.288329 13.281297
 36 1 7 -0.3790 17.867340 20.696142 12.011700
 37 1 8 -0.3506 20.508089 19.347885 12.005105
 38 1 2 0.0866 20.556624 14.639583 12.014511
 39 1 6 0.1570 19.668860 19.119143 12.503048
 40 1 1 -0.0801 21.105915 16.250489 13.348862
 41 1 1 -0.0521 18.751992 20.921910 15.623952
 42 1 11 -0.2514 19.044550 15.356155 16.558798
 43 1 2 0.0871 21.460604 15.812080 16.444085
 44 1 1 -0.0092 20.741347 20.715179 11.734656
 45 1 2 0.0895 21.307037 21.205516 13.734477
 46 1 6 0.1829 19.769280 15.811041 16.021580
 47 1 1 0.0400 18.514550 21.310268 14.286357
 48 1 2 0.0872 18.909389 19.870468 15.875323
 49 1 1 -0.0645 21.246587 14.971192 12.787767
 50 1 2 0.0866 21.448267 18.796730 16.576596
 51 1 1 -0.0457 21.252099 21.580638 12.714346
 52 1 2 0.0839 20.275621 16.891376 13.051077
 53 1 1 -0.0645 20.495159 21.210008 10.446846
 54 1 2 0.0866 19.963414 20.600067 9.723141
 55 1 6 0.1570 23.757225 13.076596 12.023029
 56 1 11 -0.2514 23.923284 19.567919 15.722355
 57 1 10 0.2266 24.178292 16.298288 17.012174
 58 1 11 -0.2514 24.081499 16.354565 15.624604
 59 1 1 0.0077 23.106150 15.875551 14.708741
 60 1 1 0.0078 23.371380 19.758982 17.034578
 61 1 6 0.1829 24.920854 16.685184 15.167946
 62 1 1 0.0586 25.033212 19.122738 11.505632
 63 1 6 0.1829 23.233738 19.514312 14.980016
 64 1 1 -0.0444 23.248169 14.601755 14.130983
 65 1 1 -0.0507 24.649839 19.151589 12.857763
 66 1 2 0.0896 24.101365 13.984545 14.402696
 67 1 2 0.0839 24.761633 13.555528 16.942774
 68 1 10 0.2266 25.266835 19.605856 15.323165
 69 1 8 -0.3506 22.788988 13.203997 12.184425
 70 1 2 0.0872 23.594033 19.286285 13.088556
 71 1 2 0.0866 22.013753 17.744431 14.607363
 72 1 1 -0.0632 22.079064 16.723034 14.246816
 73 1 1 -0.0091 22.382958 14.200192 13.093166
 74 1 12 0.3852 24.183805 19.914887 10.585569
 75 1 4 -0.2415 23.061167 19.569418 10.279382
 76 1 6 0.1570 19.637804 19.161946 12.516255
 77 1 7 -0.2415 23.777225 21.689127 13.893555
 78 1 6 0.1570 23.821833 13.163143 12.097379
 79 1 7 -0.2415 24.527282 21.224333 10.653754
 80 1 1 -0.0430 29.019448 18.348277 17.106204
 81 1 6 0.1829 32.402772 13.571709 15.143878
 82 1 1 0.0279 25.620540 19.375053 13.857569
 83 1 6 0.1829 30.086659 15.234083 16.538658
 84 1 1 -0.0531 30.098083 13.960882 14.530662
 85 1 4 -0.2763 27.551553 16.463760 15.130983
 86 1 2 0.0896 28.158968 18.454398 16.457095
 87 1 10 0.2266 31.772547 12.157659 13.812817
 88 1 2 0.0866 25.975677 12.041375 15.622121
 89 1 4 -0.2415 25.883710 12.568616 12.061759
 90 1 1 -0.0632 26.461050 12.425249 16.509241
 91 1 1 -0.0507 26.958955 19.557864 13.433668
 92 1 2 0.0872 27.700246 19.849820 14.168379
 93 1 6 0.1829 28.451129 21.019963 16.980022
 94 1 1 0.0586 27.353472 19.380244 12.089616
 95 1 4 -0.2763 26.120113 20.014582 16.089340
 96 1 12 0.3852 27.011558 12.118022 12.138825
 97 1 1 -0.0507 29.438141 12.337922 12.865158
 98 1 1 0.0278 30.435287 12.866188 13.704606
 99 1 1 -0.0507 27.792363 13.885049 13.771289
 100 1 1 0.0278 28.782836 14.481450 14.577203
 101 1 10 0.2266 28.471649 15.711041 15.410656
 102 1 2 0.0872 29.655578 11.438670 12.287047
 103 1 2 0.0871 30.859109 14.390447 15.171618
 104 1 1 0.0586 28.112776 12.821059 12.901432
 105 1 12 0.3852 28.757277 19.619602 11.606829
 106 1 7 -0.2415 29.609757 20.119556 12.524819
 107 1 2 0.0872 26.754977 14.202196 13.869109
 108 1 11 -0.2514 29.398242 15.965924 16.417753
 109 1 1 0.0078 27.762014 12.064148 16.875223
 110 1 2 0.0874 26.657884 19.026268 10.092494
 111 1 4 -0.2415 29.105770 19.493614 10.443945
 112 1 1 -0.0483 26.381200 19.056807 11.142740
 113 1 1 0.0277 14.535973 16.780514 21.728322
 114 1 1 -0.0531 14.636869 15.392812 21.505391
 115 1 2 0.0871 13.735633 14.789909 21.415846
 116 1 1 0.0078 11.603102 18.317672 17.517098
 117 1 4 -0.2763 18.302313 15.300869 18.707894
 118 1 2 0.0866 12.701119 20.916694 20.219106
 119 1 6 0.1829 17.999434 13.449357 20.829395
 120 1 1 -0.0632 13.835596 16.806062 18.392819
 121 1 2 0.0866 14.670936 16.213367 18.793365
 122 1 2 0.0839 15.002164 18.580380 17.964120
 123 1 4 -0.2763 11.986661 12.797775 19.121598
 124 1 2 0.0872 13.340674 11.666452 17.328386
 125 1 10 0.2266 15.967217 13.252352 21.060758
 126 1 1 -0.0801 13.998356 18.147413 17.977689
 127 1 4 -0.2763 12.135121 16.825416 21.756449
 128 1 11 -0.2514 17.236112 12.774271 20.721914
 129 1 1 -0.0632 12.867406 18.909316 17.580673
 130 1 1 -0.0632 12.004380 20.830777 21.045747
 131 1 1 0.0078 12.553704 16.234327 18.341272
 132 1 10 0.2266 12.093812 13.735778 18.360830
 133 1 6 0.1829 12.436245 14.970413 19.935446
 134 1 11 -0.2514 12.346933 14.972651 18.925864
 135 1 1 0.0078 17.568347 11.564155 20.017316
 136 1 10 0.2266 13.175818 17.459063 21.775415
 137 1 1 0.0277 15.886440 14.736520 21.425316
 138 1 1 -0.0430 11.444891 16.983657 17.911259
 139 1 4 -0.2763 14.953498 12.624544 20.813003
 140 1 1 -0.0531 15.732758 17.503277 21.921638
 141 1 6 0.1829 14.045745 19.299991 21.593276
 142 1 11 -0.2514 13.169483 18.846234 21.812343
 143 1 1 -0.0531 17.053632 15.479205 21.689376
 144 1 6 0.1829 13.618257 12.489692 23.488173
 145 1 1 0.0078 15.299376 20.386135 24.990791
 146 1 2 0.0871 12.270402 13.196213 22.579729
 147 1 1 -0.0430 16.563262 12.787495 24.837264
 148 1 2 0.0896 16.740292 13.797045 24.485434
 149 1 11 -0.2514 18.194282 18.585571 23.383821
 150 1 10 0.2266 13.836750 14.221290 24.581909
 151 1 2 0.0871 15.688701 18.574330 22.064863
 152 1 1 0.0277 12.487923 14.692583 24.101043
 153 1 1 0.0078 17.098799 18.895766 24.241547
 154 1 1 -0.0531 11.846046 15.737364 24.770802
 155 1 1 0.0078 15.300890 12.202181 24.643011
 156 1 11 -0.2514 14.523953 21.574643 24.884727
 157 1 1 0.0078 12.073390 19.740208 21.929678
 158 1 2 0.0896 16.860645 20.935390 23.578558
 159 1 1 -0.0430 16.476338 20.163958 24.238693
 160 1 11 -0.2514 14.234398 12.971469 24.126526
 161 1 10 0.2266 18.248149 17.605768 22.380862
 162 1 1 0.0277 16.988290 16.860710 21.985293
 163 1 1 -0.0531 11.779584 14.001686 23.107895
 164 1 2 0.0871 17.995966 14.920328 21.698184
 165 1 2 0.0866 12.936750 19.948895 17.251440
 166 1 1 -0.0531 20.969654 15.184398 19.732004
 167 1 2 0.0866 18.985349 12.589634 18.739326
 168 1 1 -0.0632 18.535674 11.637619 18.999084
 169 1 2 0.0871 20.163448 14.994509 20.436908
 170 1 1 0.0277 20.672681 15.388355 18.376261
 171 1 4 -0.2763 18.412834 20.624175 18.592092
 172 1 1 -0.0632 20.059362 21.299271 20.975405
 173 1 2 0.0839 20.766274 18.552731 18.877073
 174 1 1 -0.0531 21.724643 15.633792 17.464590
 175 1 10 0.2266 19.237858 15.358204 17.925142
 176 1 1 -0.0801 21.697568 19.063595 18.658806
 177 1 10 0.2266 19.036666 21.529801 18.068690
 178 1 2 0.0866 19.531493 20.433418 20.628259
 179 1 1 0.0078 21.876544 12.796629 21.595456
 180 1 6 0.1829 19.082794 18.980653 23.690651
 181 1 2 0.0896 20.431369 12.421000 23.162851
 182 1 1 -0.0430 20.885192 12.040696 22.250820
 183 1 1 -0.0801 20.426498 21.328532 22.322826
 184 1 2 0.0839 20.144926 20.483406 22.951447
 185 1 4 -0.2763 19.326156 17.253672 21.930083
 186 1 2 0.0896 24.948155 21.028430 17.847345
 187 1 1 -0.0531 23.306995 15.650258 19.284044
 188 1 11 -0.2514 24.263615 21.118990 20.433219
 189 1 1 0.0277 22.284488 15.332787 20.202214
 190 1 10 0.2266 22.608759 15.179192 21.670374
 191 1 10 0.2266 24.597211 20.648601 21.707118
 192 1 2 0.0866 22.124546 19.504656 20.712015
 193 1 4 -0.2763 25.215295 16.700527 17.513136
 194 1 1 -0.0632 22.472793 19.606717 19.688130
 195 1 1 -0.0430 24.058071 20.448310 18.066772
 196 1 2 0.0866 23.284532 12.843283 19.938545
 197 1 2 0.0871 24.297639 15.839666 19.679843
 198 1 1 -0.0632 22.483916 12.294324 20.429290
 199 1 1 0.0078 23.620326 20.367818 19.401387
 200 1 1 0.0277 23.051591 15.807304 17.903724
 201 1 1 -0.0632 22.120784 19.180802 17.333038
 202 1 11 -0.2514 22.447371 13.915996 22.235615
 203 1 2 0.0839 24.523687 13.168525 23.297408
 204 1 2 0.0871 25.046825 20.185476 24.369192
 205 1 6 0.1829 22.925546 13.699560 23.115398
 206 1 1 -0.0531 24.808737 21.225612 24.173270
 207 1 1 0.0277 24.673363 21.656769 22.831078
 208 1 4 -0.2763 23.161760 16.074373 22.284839
 209 1 2 0.0866 22.159548 19.832003 24.764728
 210 1 4 -0.2763 24.600886 19.453816 21.950753
 211 1 10 0.2266 28.011257 21.177688 18.982698
 212 1 1 0.0078 29.682537 17.109785 17.214305
 213 1 1 0.0078 29.457430 19.452965 17.862742
 214 1 11 -0.2514 28.662721 20.624420 17.888674
 215 1 2 0.0866 31.284969 16.035762 18.185162
 216 1 1 -0.0531 28.238525 21.353265 21.463467
 217 1 2 0.0866 30.992288 20.206139 19.204080
 218 1 11 -0.2514 28.020822 13.604889 20.261191
 219 1 1 -0.0531 27.968152 19.141873 20.510820
 220 1 2 0.0871 27.848119 18.506472 19.640731
 221 1 1 0.0277 28.137231 20.526833 20.333323
 222 1 1 -0.0801 31.281808 18.118594 18.760812
 223 1 1 -0.0801 25.744645 13.316485 17.304352
 224 1 1 -0.0632 30.621345 19.349176 18.648761
 225 1 1 0.0277 27.840035 18.582195 21.796603
 226 1 2 0.0871 32.042463 14.666112 21.650003
 227 1 1 -0.0632 30.783697 16.996269 18.081467
 228 1 2 0.0896 29.292142 12.193504 18.349801
 229 1 6 0.1829 28.025039 14.577713 20.558767
 230 1 1 -0.0632 26.277255 13.817650 18.509557
 231 1 2 0.0866 25.672388 14.474724 19.130583
 232 1 1 0.0078 27.550571 13.380681 18.933562
 233 1 1 -0.0430 28.311160 12.568061 18.062316
 234 1 10 0.2266 28.562518 12.706419 21.188899
 235 1 4 -0.2763 27.410563 16.429184 20.925822
 236 1 4 -0.2763 31.747587 13.141136 19.397633
 237 1 2 0.0896 32.118654 12.510634 17.198982
 238 1 2 0.0839 32.174920 18.032667 19.373748
 239 1 1 0.0078 27.196004 15.249402 23.569230
 240 1 1 -0.0531 27.741309 19.464571 22.900777
 241 1 6 0.1829 31.398463 15.789873 22.767189
 242 1 1 -0.0632 31.149900 20.307005 24.306648
 243 1 1 0.0078 27.528497 13.303902 25.012966
 244 1 1 -0.0801 25.539767 13.461168 23.594905
 245 1 6 0.1829 27.733346 17.206622 23.962655
 246 1 10 0.2266 27.666351 17.088541 21.913892
 247 1 1 -0.0632 26.042125 14.643446 23.042522
 248 1 11 -0.2514 31.762892 16.142443 23.646073
 249 1 1 -0.0430 27.918326 14.588658 24.575576
 250 1 1 -0.0801 30.992384 19.752710 23.018480
 251 1 1 -0.0632 31.194002 18.372557 22.833643
 252 1 2 0.0896 28.805419 15.065244 24.976783
 253 1 2 0.0871 27.494672 19.061954 23.877063
 254 1 4 -0.2763 29.125791 13.154691 22.166604
 255 1 11 -0.2514 27.575823 16.566718 23.194963
 256 1 1 0.0277 28.002404 20.851692 22.757953
 257 1 1 0.0078 31.539188 17.539590 23.910907
 258 1 2 0.0866 25.471546 15.129299 22.265038
 259 1 2 0.0866 25.987951 11.793145 24.917199
 260 1 1 -0.0632 26.324327 12.749548 24.531215
 261 1 2 0.0866 31.008279 21.377979 24.441618
 262 1 2 0.0839 30.735125 20.388008 22.173099
 263 1 2 0.0866 31.082791 17.939787 21.846730
 264 1 10 0.2266 28.154291 21.782323 23.949029
 265 1 1 -0.0531 32.440878 13.786707 22.169379
 266 1 2 0.0866 11.723688 11.312617 28.978340
 267 1 2 0.0871 14.921139 12.620811 28.871993
 268 1 4 -0.2763 12.817888 15.912815 28.641842
 269 1 1 -0.0632 16.615972 17.901218 25.100743
 270 1 2 0.0866 17.123572 16.945724 25.152147
 271 1 1 -0.0531 14.040412 20.854388 31.931347
 272 1 6 0.1829 13.319959 12.835058 29.175637
 273 1 1 0.0078 17.582375 12.044925 25.451733
 274 1 10 0.2266 13.388529 14.856539 28.851132
 275 1 2 0.0839 15.157416 17.387587 26.629778
 276 1 1 -0.0801 15.500729 18.140941 25.920726
 277 1 1 -0.0632 14.822451 19.364213 25.831733
 278 1 10 0.2266 17.826221 17.151871 28.505781
 279 1 1 0.0278 14.005497 21.253826 30.582009
 280 1 11 -0.2514 11.802106 20.213502 30.269514
 281 1 1 -0.0801 17.575277 16.131509 32.026346
 282 1 1 -0.0531 15.534587 13.513820 28.854066
 283 1 4 -0.2763 14.436164 14.791289 25.478940
 284 1 2 0.0866 13.907208 19.499024 26.395282
 285 1 1 -0.0521 15.214850 21.586033 29.940885
 286 1 4 -0.2763 17.302298 18.239607 28.674472
 287 1 1 -0.0521 16.468467 20.852453 31.895504
 288 1 1 -0.0632 16.388278 15.564909 32.513091
 289 1 1 -0.0531 17.696979 14.609047 28.765952
 290 1 1 0.0400 16.450077 21.352112 30.578172
 291 1 11 -0.2514 12.728849 13.668076 29.123631
 292 1 6 0.1829 12.014953 19.784077 31.162697
 293 1 10 0.2266 17.639448 12.102283 29.014692
 294 1 1 0.0277 16.941194 13.424616 28.875418
 295 1 10 0.2266 12.752223 21.094891 29.758848
 296 1 2 0.0872 17.416234 20.642581 32.382696
 297 1 1 -0.0531 15.662165 15.928501 28.793414
 298 1 1 0.0277 17.063170 15.869658 28.708895
 299 1 1 0.0277 14.887919 14.760022 28.833658
 300 1 2 0.0871 15.161614 16.890194 28.759277
 301 1 2 0.0871 12.412993 16.247833 25.534668
 302 1 4 -0.2763 14.701350 12.051129 31.581535
 303 1 4 -0.2763 12.714414 21.485928 28.602967
 304 1 2 0.0896 12.065079 18.678223 28.072324
 305 1 12 0.2765 17.746707 21.505884 29.839510
 306 1 2 0.0839 17.618895 17.197381 31.822125
 307 1 1 0.0078 11.339676 13.403881 29.242668
 308 1 10 0.2266 14.362693 12.575903 32.629462
 309 1 1 0.0078 16.303228 14.172895 32.700456
 310 1 1 0.0278 15.264598 20.601232 32.576096
 311 1 4 -0.2763 12.428703 15.750364 32.795562
 312 1 1 -0.0531 12.114856 11.457629 32.592018
 313 1 2 0.0896 17.370338 12.292421 32.632626
 314 1 1 -0.0430 17.427230 13.363844 32.454115
 315 1 2 0.0871 13.113054 20.610006 32.439375
 316 1 2 0.0866 15.512851 16.185323 32.659169
 317 1 6 0.1829 13.928855 21.716150 25.679079
 318 1 2 0.0871 21.101166 15.846789 25.140775
 319 1 2 0.0871 18.780675 14.540559 28.742952
 320 1 1 -0.0632 19.461995 19.164046 26.741384
 321 1 2 0.0866 21.350137 21.566415 31.257772
 322 1 1 0.0078 19.928319 17.981952 27.352341
 323 1 1 -0.0632 21.554111 19.333108 25.516528
 324 1 4 -0.2763 18.839143 12.004708 28.839140
 325 1 10 0.2266 20.873375 13.164272 30.997437
 326 1 11 -0.2514 19.066163 17.005522 27.909306
 327 1 6 0.1829 19.371699 16.057066 27.728163
 328 1 10 0.2266 19.434019 13.753187 25.587825
 329 1 2 0.0871 21.086926 11.760151 26.621835
 330 1 6 0.1829 19.579908 11.710255 25.656983
 331 1 1 -0.0632 18.688454 15.316090 31.757107
 332 1 4 -0.2623 18.769666 20.951347 30.196395
 333 1 11 -0.2514 18.920660 12.469428 25.531699
 334 1 4 -0.2763 21.116151 14.135452 30.304815
 335 1 1 0.0277 20.907706 13.816448 25.860264
 336 1 4 -0.2763 18.755096 14.761068 25.483923
 337 1 2 0.0866 19.570638 15.773715 31.331403
 338 1 2 0.0866 18.443026 19.509531 26.889389
 339 1 1 0.0078 18.628153 13.920979 31.977549
 340 1 1 -0.0632 21.408787 20.527542 31.573476
 341 1 2 0.0839 19.937264 20.769085 25.371467
 342 1 2 0.0896 21.624574 16.729244 27.757286
 343 1 1 -0.0430 21.267783 17.593317 27.197457
 344 1 11 -0.2514 19.733785 13.034981 31.788821
 345 1 1 -0.0801 20.295254 19.861854 25.852749
 346 1 1 -0.0531 21.587495 12.701896 26.398311
 347 1 1 -0.0531 21.618880 15.009853 25.602039
 348 1 6 0.1829 19.671472 12.190381 32.343258
 349 1 1 0.0078 21.579587 17.840440 32.393920
 350 1 11 -0.2514 21.506489 16.504993 32.861329
 351 1 1 0.0078 20.974300 20.159702 32.860956
 352 1 10 0.2266 24.333130 21.600484 26.680356
 353 1 10 0.2266 25.268980 15.640904 29.494331
 354 1 6 0.1829 23.928048 18.391883 25.441318
 355 1 1 0.0078 22.033014 18.173488 26.158423
 356 1 1 0.0078 25.157267 18.104918 29.958855
 357 1 1 -0.0430 25.080198 18.614819 28.647544
 358 1 1 0.0078 25.215455 19.991523 28.402568
 359 1 11 -0.2514 24.800625 16.756138 30.181569
 360 1 2 0.0896 24.845969 17.943957 27.827553
 361 1 1 -0.0632 22.001874 18.205328 31.095526
 362 1 1 0.0277 22.990201 15.120651 25.918355
 363 1 4 -0.2763 24.825413 11.727398 27.651968
 364 1 10 0.2266 23.699877 11.588678 27.211868
 365 1 11 -0.2514 25.088378 20.500673 27.072527
 366 1 10 0.2266 23.820136 16.364259 25.663954
 367 1 2 0.0871 23.528088 13.343985 31.326480
 368 1 6 0.1829 23.870349 16.669903 30.602120
 369 1 1 -0.0531 23.232214 12.305483 31.228651
 370 1 2 0.0871 24.725624 13.961315 26.590742
 371 1 4 -0.2763 24.517819 14.690165 29.364367
 372 1 1 -0.0531 23.647677 13.971040 26.412473
 373 1 2 0.0839 22.168548 19.847922 29.677076
 374 1 4 -0.2763 25.020470 16.244623 25.461496
 375 1 1 0.0277 22.956052 12.774824 26.664037
 376 1 11 -0.2514 23.283510 17.655794 25.713818
 377 1 2 0.0866 22.421265 17.471007 30.398497
 378 1 1 -0.0801 21.890513 19.549390 30.684155
 379 1 1 0.0278 21.856250 12.033508 31.083819
 380 1 4 -0.2763 23.693277 15.913696 32.802390
 381 1 1 0.0278 24.173964 11.252658 31.339324
 382 1 1 -0.0632 25.391258 18.972063 31.044808
 383 1 6 0.1829 25.457852 19.929676 26.321898
 384 1 1 -0.0430 32.128394 17.595558 31.825578
 385 1 1 -0.0531 27.709993 16.508138 29.229199
 386 1 11 -0.2514 27.876492 21.226171 25.185970
 387 1 1 -0.0531 27.043940 14.426003 28.207900
 388 1 1 -0.0632 30.195795 13.838927 32.063831
 389 1 2 0.0871 27.577766 17.349630 29.889572
 390 1 1 -0.0531 29.342521 15.158266 28.022947
 391 1 2 0.0896 31.122799 17.800517 32.170685
 392 1 6 0.1829 27.385692 20.345051 25.126652
 393 1 1 -0.0632 27.825010 14.249482 32.239657
 394 1 10 0.2266 28.728276 12.866763 27.193519
 395 1 1 -0.0430 28.635061 12.299452 31.041726
 396 1 1 0.0078 27.573718 13.069847 31.518924
 397 1 11 -0.2514 31.075179 11.798191 31.105689
 398 1 2 0.0866 25.433633 18.609508 32.075471
 399 1 1 0.0078 31.495423 19.496487 25.402801
 400 1 1 0.0277 28.351672 14.205365 27.748992
 401 1 6 0.1829 25.681861 13.363666 30.793696
 402 1 2 0.0871 26.306481 13.648785 28.073230
 403 1 6 0.1829 31.149168 20.899068 26.903482
 404 1 1 -0.0632 28.664290 20.955417 27.521284
 405 1 2 0.0839 25.638651 21.024680 31.644360
 406 1 11 -0.2514 26.241612 12.673705 31.256860
 407 1 4 -0.2763 29.228725 12.026784 27.918142
 408 1 6 0.1829 31.954161 12.300740 31.089311
 409 1 2 0.0871 30.370502 14.980669 27.715916
 410 1 2 0.0866 28.958261 19.938469 27.320918
 411 1 1 -0.0430 31.651980 18.107504 25.198145
 412 1 6 0.1829 31.040811 15.353109 29.936390
 413 1 2 0.0839 29.282060 20.784020 29.589398
 414 1 10 0.2266 25.648156 11.470717 31.606204
 415 1 1 0.0277 26.683810 15.577711 28.939108
 416 1 2 0.0839 31.995600 13.389273 27.356106
 417 1 1 0.0277 29.028137 16.281803 28.808067
 418 1 1 -0.0632 25.425153 20.853708 29.494863
 419 1 2 0.0896 31.876751 17.474676 26.047683
 420 1 1 -0.0801 25.507156 20.348633 30.804985
 421 1 1 -0.0801 28.836081 21.433356 28.833033
 422 1 11 -0.2514 28.332685 12.540807 25.904675
 423 1 1 0.0078 32.285790 16.843151 30.648647
 424 1 2 0.0866 26.995867 14.865109 32.588398
 425 1 11 -0.2514 31.162515 16.357764 29.941458
 426 1 10 0.2266 30.137489 17.110648 29.383080
 427 1 11 -0.2514 31.727932 20.098415 26.677535
 428 1 4 -0.2763 30.053200 18.323921 29.492386
 429 1 1 0.0078 29.959438 12.646539 31.359449
 430 1 1 0.0078 28.130821 21.764219 26.493138
 431 1 2 0.0896 28.385219 11.428741 30.458429
 432 1 6 0.1829 28.521545 11.594721 25.599769
 433 1 1 -0.0801 29.139215 14.642788 32.506836
 434 1 2 0.0866 31.206892 14.125736 32.308638
 435 1 2 0.0866 17.240912 17.219203 35.866414
 436 1 6 0.1829 14.738455 19.615777 37.847162
 437 1 1 0.0400 11.590800 12.164046 35.278681
 438 1 1 -0.0801 15.643088 15.930072 36.577985
 439 1 2 0.0866 18.115125 12.445906 38.667072
 440 1 1 -0.0632 17.256262 19.571716 38.098670
 441 1 1 0.0078 16.369922 20.390454 38.806919
 442 1 2 0.0871 16.932908 21.727557 35.416714
 443 1 2 0.0872 12.580072 19.736572 37.597219
 444 1 2 0.0866 16.897787 18.655959 37.642303
 445 1 1 -0.0521 12.820483 12.499827 34.669895
 446 1 11 -0.2514 15.001910 20.004993 38.747078
 447 1 1 0.0278 13.079832 12.181754 33.317840
 448 1 2 0.0839 16.282567 15.414715 37.304405
 449 1 1 -0.0531 12.798262 17.538349 40.190748
 450 1 10 0.2266 14.175706 19.639625 39.799436
 451 1 1 0.0586 11.344782 17.968088 37.812735
 452 1 2 0.0872 13.586625 12.989277 35.257301
 453 1 1 0.0078 15.363891 17.662690 34.875127
 454 1 4 -0.2623 11.835094 13.520740 37.241937
 455 1 1 0.0078 13.493459 16.176590 35.433702
 456 1 6 0.1829 17.405487 13.176118 36.142662
 457 1 1 -0.0507 12.348472 18.874903 38.217965
 458 1 10 0.2266 15.222560 19.951490 33.931164
 459 1 2 0.0866 13.891865 14.733267 37.031076
 460 1 1 0.0278 13.069702 18.682587 39.414426
 461 1 1 0.0278 11.822195 16.597191 39.794267
 462 1 1 -0.0430 14.021376 17.274191 34.729715
 463 1 2 0.0896 13.395882 17.796414 34.007512
 464 1 6 0.1829 16.448961 18.420509 33.279698
 465 1 12 0.2765 11.300271 12.567657 36.706785
 466 1 1 -0.0632 16.188290 16.957112 35.774536
 467 1 11 -0.2514 12.187976 15.722718 35.077936
 468 1 11 -0.2514 15.851530 18.714936 34.044335
 469 1 1 -0.0632 14.289942 15.547611 36.420918
 470 1 11 -0.2514 15.087247 13.618254 33.184524
 471 1 4 -0.2763 14.414595 20.338117 34.753902
 472 1 6 0.1829 14.648572 14.128665 33.937426
 473 1 2 0.0839 12.862977 11.434220 38.733200
 474 1 6 0.1829 11.537699 15.599164 35.843680
 475 1 10 0.2266 11.702357 15.639367 33.772049
 476 1 1 -0.0430 16.846283 21.584361 39.399636
 477 1 10 0.2266 11.550232 15.418886 40.700783
 478 1 11 -0.2514 20.488219 17.215835 38.435499
 479 1 1 -0.0632 19.559994 15.367698 39.698931
 480 1 10 0.2266 19.430327 21.003238 34.668168
 481 1 11 -0.2514 18.395395 13.392285 36.155624
 482 1 1 0.0278 20.640070 12.933421 35.119213
 483 1 1 -0.0801 18.583886 19.958337 37.918726
 484 1 4 -0.2763 18.774279 19.982850 34.782465
 485 1 2 0.0839 19.225223 19.351196 37.299525
 486 1 6 0.1829 20.610240 16.253141 33.259723
 487 1 2 0.0866 20.086304 21.420876 38.253923
 488 1 1 -0.0801 18.913221 14.127482 39.765447
 489 1 1 -0.0632 18.571827 13.435773 38.592484
 490 1 10 0.2266 19.197707 12.559197 35.389687
 491 1 1 0.0078 18.809184 14.043013 37.341268
 492 1 1 -0.0430 19.395015 15.318938 37.279190
 493 1 1 0.0078 19.820193 15.964635 38.456792
 494 1 11 -0.2514 20.437460 21.147620 33.726621
 495 1 2 0.0839 19.295736 18.050195 40.759094
 496 1 2 0.0866 19.867540 15.856819 40.617891
 497 1 2 0.0871 20.157902 14.899437 34.376140
 498 1 2 0.0896 20.758824 18.516701 34.260791
 499 1 1 -0.0430 21.079156 18.818261 33.266323
 500 1 2 0.0896 19.523414 15.798284 36.314674
 501 1 2 0.0839 18.690472 13.702974 40.732765
 502 1 10 0.2266 21.419408 17.649231 37.497209
 503 1 1 -0.0632 19.059170 21.149379 38.476536
 504 1 6 0.1829 20.268669 17.826781 39.222080
 505 1 1 -0.0531 20.954933 14.180801 34.546456
 506 1 4 -0.2763 18.724093 11.553599 34.892191
 507 1 1 -0.0507 21.670263 11.978256 35.190565
 508 1 4 -0.2763 21.723527 16.990934 36.514763
 509 1 2 0.0871 21.829582 18.974996 39.880856
 510 1 1 -0.0531 22.155759 19.552437 39.025329
 511 1 2 0.0871 24.729650 18.653417 38.770943
 512 1 1 0.0400 23.062907 21.006654 36.799727
 513 1 6 0.1829 24.441635 16.374058 35.414842
 514 1 1 -0.0632 24.768911 13.450168 39.215596
 515 1 1 0.0078 24.098114 14.672451 39.409619
 516 1 1 -0.0430 24.133441 15.645114 38.400093
 517 1 1 0.0078 24.846013 15.417993 37.209805
 518 1 11 -0.2514 24.980528 16.470524 36.268554
 519 1 2 0.0896 23.654503 16.605362 38.564338
 520 1 2 0.0872 24.274176 13.756410 33.869498
 521 1 1 -0.0521 22.518472 19.725587 36.638472
 522 1 2 0.0866 24.782057 12.701406 40.000936
 523 1 1 0.0278 22.032742 19.000881 37.735107
 524 1 1 -0.0521 23.153012 21.558066 38.091742
 525 1 1 0.0278 22.727221 20.827852 39.220410
 526 1 11 -0.2514 23.461752 14.993009 40.636396
 527 1 10 0.2266 22.561420 15.678894 33.185621
 528 1 7 -0.2415 25.288238 11.678574 34.885548
 529 1 10 0.2266 22.861814 21.378698 40.620091
 530 1 2 0.0872 22.449747 19.297608 35.644670
 531 1 4 -0.2623 23.678751 21.218479 34.495178
 532 1 1 -0.0507 23.273452 13.543416 34.246617
 533 1 1 0.0586 22.979910 12.280193 34.780740
 534 1 1 0.0278 22.247891 14.478198 34.047704
 535 1 12 0.2765 23.543029 21.745037 35.586651
 536 1 1 -0.0801 25.475610 13.210530 38.023441
 537 1 1 -0.0632 25.489910 14.181014 37.008587
 538 1 9 0.2886 31.430885 16.994487 40.212129
 539 1 2 0.0871 30.944583 13.122744 39.659468
 540 1 7 -0.3790 30.477375 17.142518 40.345279
 541 1 1 -0.0531 31.394324 20.116035 36.554281
 542 1 4 -0.2623 30.584772 17.006598 38.109902
 543 1 1 0.0278 31.676990 20.566965 37.864044
 544 1 2 0.0839 28.736747 13.869120 35.801819
 545 1 2 0.0866 26.037042 13.972949 36.092675
 546 1 2 0.0839 29.360274 15.546896 33.067701
 547 1 1 -0.0430 32.103328 12.002663 36.234963
 548 1 1 -0.0521 27.795686 18.192187 40.183250
 549 1 1 0.0078 32.099102 13.403968 36.203788
 550 1 6 0.1829 27.381231 11.980329 39.571365
 551 1 1 0.0278 26.416152 17.822742 37.747939
 552 1 10 0.2266 25.687007 17.650237 36.449073
 553 1 1 -0.0531 25.774371 18.395473 38.852198
 554 1 1 -0.0801 29.688297 13.345069 35.904105
 555 1 1 -0.0531 31.413272 12.139928 39.631332
 556 1 1 -0.0801 27.419311 21.795772 35.684101
 557 1 1 -0.0632 30.869990 14.078909 36.095780
 558 1 2 0.0896 26.801678 21.217029 40.194129
 559 1 2 0.0866 28.823916 11.355111 35.689027
 560 1 12 0.2765 29.933993 17.264378 39.109237
 561 1 1 -0.0632 29.715849 11.944999 35.857412
 562 1 1 0.0400 28.470603 17.641850 39.063428
 563 1 1 -0.0632 27.752317 21.150958 36.886323
 564 1 2 0.0866 29.005439 14.468899 40.509172
 565 1 1 -0.0521 27.760467 17.455126 37.856582
 566 1 1 0.0278 26.434048 18.561749 40.080808
 567 1 4 -0.2763 25.653225 18.543315 35.620051
 568 1 1 0.0078 28.852061 21.591523 37.639020
 569 1 2 0.0872 28.246697 17.024032 36.990136
 570 1 4 -0.2763 30.994588 19.546279 33.742149
 571 1 11 -0.2514 29.340212 20.842671 38.739162
 572 1 2 0.0866 27.229066 20.249277 37.173313
 573 1 4 -0.2763 31.015616 20.229104 40.125577
 574 1 2 0.0871 30.432833 19.652426 36.327177
 575 1 10 0.2266 30.664189 20.492255 38.988421
 576 1 1 0.0278 32.364096 20.227225 35.535466
 577 1 2 0.0866 30.815976 15.161630 36.152219
 578 1 2 0.0839 25.997776 12.269909 37.876004
 579 1 1 0.0078 30.917594 11.270297 36.067381
 580 1 10 0.2266 32.116281 19.586339 34.205638
 581 1 11 -0.2514 28.357260 11.937123 39.861202
 582 1 2 0.0839 26.578689 21.438930 35.095303
 583 1 6 0.1829 28.705870 20.763853 39.522848
 584 1 4 -0.2763 14.447060 19.890596 40.961490
 585 1 1 -0.0632 16.008459 14.015344 42.852331
 586 1 2 0.0866 12.102076 12.710452 42.007295
 587 1 2 0.0866 17.145730 18.556835 41.996183
 588 1 2 0.0871 13.357850 17.352500 41.107717
 589 1 2 0.0866 16.548480 14.282096 41.950729
 590 1 2 0.0839 14.099396 14.222244 41.909658
 591 1 1 -0.0801 14.611649 13.974435 42.833586
 592 1 4 -0.2763 11.987579 15.432342 41.834383
 593 1 1 -0.0632 18.104845 18.681738 42.486235
 594 1 2 0.0866 12.816011 13.647866 43.980778
 595 1 1 -0.0801 14.444175 17.188434 44.271339
 596 1 1 0.0078 16.711418 13.748310 44.033240
 597 1 1 -0.0531 14.511185 20.862343 45.315286
 598 1 11 -0.2514 14.389915 15.743050 47.706493
 599 1 6 0.1829 16.349295 20.133412 43.856028
 600 1 7 -0.3790 17.943961 12.272883 48.204345
 601 1 4 -0.2763 17.195634 18.700618 46.544528
 602 1 2 0.0871 14.713386 20.821210 44.250103
 603 1 1 0.0278 13.201669 12.065008 48.573414
 604 1 1 -0.0521 13.075692 21.568970 47.139200
 605 1 2 0.0866 15.741593 15.933125 45.447406
 606 1 4 -0.2763 15.249767 11.580263 47.486577
 607 1 10 0.2266 14.170472 12.136939 47.417364
 608 1 1 -0.0632 13.258036 17.931586 44.257624
 609 1 1 0.0078 18.145285 19.124084 43.823288
 610 1 6 0.1829 11.862081 19.928819 45.661898
 611 1 1 -0.0430 15.998457 13.347931 45.184254
 612 1 1 0.0078 14.581921 13.266656 45.172050
 613 1 2 0.0896 16.547349 13.121165 46.087424
 614 1 11 -0.2514 11.479410 19.019466 45.440148
 615 1 9 0.2886 17.281672 12.930772 47.939521
 616 1 1 -0.0531 11.823021 12.296229 48.391334
 617 1 2 0.0871 11.417188 12.498596 47.402867
 618 1 1 -0.0521 14.986392 20.153774 47.594978
 619 1 2 0.0872 16.311707 14.236042 48.243156
 620 1 1 0.0400 13.858215 20.852958 48.060339
 621 1 1 -0.0632 13.898887 13.626847 43.995896
 622 1 6 0.1829 14.801661 14.850095 47.463157
 623 1 11 -0.2514 16.949835 19.574656 44.450331
 624 1 1 0.0278 15.324586 20.146085 46.224205
 625 1 11 -0.2514 18.127831 13.884294 43.984686
 626 1 1 0.0278 13.405731 21.607261 45.771653
 627 1 2 0.0896 12.200946 17.363528 47.445455
 628 1 11 -0.2514 13.799103 12.906273 46.318443
 629 1 2 0.0872 15.586375 19.605452 48.311208
 630 1 6 0.1829 12.851913 13.270079 46.326578
 631 1 1 -0.0632 14.816523 16.498389 45.435197
 632 1 1 0.0078 12.469905 18.015094 45.406736