LAMMPS data file via write_data, version 29 Oct 2020, timestep = 38

6784 atoms
14 atom types
7209 bonds
18 bond types
11142 angles
23 angle types
19505 dihedrals
42 dihedral types

11.246593 53.753407 xlo xhi
11.246593 53.753407 ylo yhi
6.96606 62.059614 zlo zhi

Masses

1 12.01
2 1.008
3 12.01
4 16
5 14.01
6 1.008
7 16
8 14.01
9 1.008
10 12.01
11 14.01
12 12.01
13 1.008
14 16

Pair Coeffs # lj/cut/coul/long/omp

1 0.086 3.39967
2 0.015 2.59964
3 0.086 3.39967
4 0.21 2.95992
5 0.17 3.25
6 0.0157 1.06908
7 0.2104 3.06647
8 0.17 3.25
9 0 0
10 0.086 3.39967
11 0.17 3.25
12 0.086 3.39967
13 0.0157 1.06908
14 0.2104 3.06647

Atoms # full

1 1 6 0.157 15.474978948538515 18.52421776284752 14.361476630977332 0 0 0
2 1 1 0.0078 11.659939133681462 18.30600499345695 17.367363148759654 0 0 0
3 1 1 0.04 11.631242745529615 13.67960196351043 14.551425600509381 0 0 0
4 1 4 -0.2763 18.260860769339732 15.299178827074906 18.661371306880078 0 0 0
5 1 1 -0.0521 12.879535705709534 12.189083740230942 16.593468745720287 0 0 0
6 1 2 0.0866 14.263667362082305 15.18312355831243 14.041085117781124 0 0 0
7 1 2 0.0866 12.698526931758478 20.92048029363682 20.217793709815837 0 0 0
8 1 4 -0.2623 17.501874168646467 19.146801327945454 13.744736700707223 0 0 0
9 1 1 -0.0632 17.11398828717456 14.217669218289846 15.652554619447551 0 0 0
10 1 1 0.0077 17.700260514265615 15.475464287924233 15.857560501072642 0 0 0
11 1 1 -0.0444 17.064944081551456 16.62715815837972 15.352523163427485 0 0 0
12 1 1 -0.0091 15.80054924951451 16.534809785774033 14.71578786810106 0 0 0
13 1 8 -0.3506 15.057522495849541 17.64358338150749 14.224008983699694 0 0 0
14 1 2 0.0896 17.59662765492753 17.5642056035049 15.438894790603142 0 0 0
15 1 1 -0.0632 13.860167832145102 16.815033382069057 18.32405657196088 0 0 0
16 1 2 0.0866 14.684915485755306 16.250126528245463 18.772600151354588 0 0 0
17 1 2 0.0839 15.057732464518022 18.529142482020823 17.74307235226173 0 0 0
18 1 1 0.04 12.994085657055725 11.76221935733814 15.259473581451878 0 0 0
19 1 4 -0.2763 11.995709857555148 12.816917894769524 19.171555732265258 0 0 0
20 1 1 -0.0645 15.221903661071641 15.269870094626718 14.5452224429402 0 0 0
21 1 1 -0.051 12.323426500685281 12.484311386026187 14.241287056249208 0 0 0
22 1 2 0.0872 13.340726440866476 11.610567899329848 17.394223659997483 0 0 0
23 1 1 -0.0801 14.055230254570503 18.103683025450596 17.77793319321313 0 0 0
24 1 2 0.0839 15.413544847176606 13.15060596572565 14.818424146156488 0 0 0
25 1 2 0.0866 13.072373253745658 19.8158941202848 16.813324393865006 0 0 0
26 1 2 0.0866 17.623621734709804 13.326862826697084 16.007808654041263 0 0 0
27 1 1 -0.0632 12.95436245684293 18.833317557471755 17.26987799830055 0 0 0
28 1 1 0.0078 12.573898320781463 16.247143816244648 18.304740802691267 0 0 0
29 1 2 0.0872 12.353550811726755 12.125016041082848 13.212051613327136 0 0 0
30 1 1 -0.0801 15.881864440268787 14.114860538063372 14.984197358229553 0 0 0
31 1 1 0.0278 12.245409817642042 13.400468040673143 16.91652668731098 0 0 0
32 1 10 0.2266 12.120986065438458 13.730322286929178 18.382909616234716 0 0 0
33 1 6 0.1829 12.436988190170462 15.007055259249167 19.921062471226367 0 0 0
34 1 11 -0.2514 12.357926209531865 14.990570737760041 18.911949589704147 0 0 0
35 1 1 0.0078 17.56854427214451 11.564897411907019 20.017865708506843 0 0 0
36 1 1 -0.0521 11.64399104786263 14.147521213693357 15.886100276919507 0 0 0
37 1 1 -0.043 11.474745488414571 17.006143940455786 17.865550759914875 0 0 0
38 1 6 0.157 15.403456967959627 18.623430591910527 14.314826585522436 0 0 0
39 1 12 0.2765 17.691429321183804 20.277000913164237 13.386052122195588 0 0 0
40 1 11 -0.2514 17.23350832790406 12.77114725214998 20.723412559554585 0 0 0
41 1 7 -0.379 17.205269170894667 20.474671014111102 12.031819226716598 0 0 0
6720 1 9 0.2886 17.071029648932605 19.44730382446434 11.238830704649315 0 0 0
42 1 6 0.157 18.90116078404268 19.48133369930246 11.561504149456969 0 0 0
43 1 8 -0.3506 19.891658478083592 19.605833182878712 11.849911658317392 0 0 0
44 1 1 -0.0531 20.93770557153192 15.187502812254001 19.697359663547317 0 0 0
45 1 2 0.0866 18.98234040175364 12.59199106977291 18.73782676704678 0 0 0
46 1 1 -0.0632 18.536858155802538 11.638022845334913 19.00089090051226 0 0 0
47 1 2 0.0871 20.138694041875702 14.999117107181194 20.408360157630383 0 0 0
48 1 2 0.0866 20.476618517446717 14.56867055873202 11.970893136120983 0 0 0
49 1 6 0.157 18.94896241150609 19.405197100905536 11.608174186250956 0 0 0
50 1 1 -0.0801 21.138560419760328 16.185963331590507 13.240730073469873 0 0 0
51 1 1 0.0277 20.6310289752473 15.393441808030902 18.334858924721413 0 0 0
52 1 4 -0.2763 18.412076863433025 20.630268573414725 18.617394161890594 0 0 0
53 1 2 0.0839 20.824902089952968 18.567891726831352 18.720643986479793 0 0 0
54 1 1 -0.0531 21.68749350554554 15.62444618614487 17.428934375545516 0 0 0
55 1 10 0.2266 19.186588534324077 15.411006404287027 17.87439836885175 0 0 0
56 1 1 -0.0521 18.72337056304185 20.894794088377317 15.664568921542093 0 0 0
57 1 1 -0.0801 21.773708864631253 19.05753358018803 18.520977708599872 0 0 0
58 1 11 -0.2514 18.96113151287496 15.550762596832724 16.510614521086016 0 0 0
59 1 2 0.0871 21.43890625031139 15.800005887829704 16.401128909408705 0 0 0
60 1 10 0.2266 19.037261987834665 21.53570368940433 18.094257748162736 0 0 0
61 1 1 -0.0092 20.376913180406213 20.884989593409394 11.526370895797065 0 0 0
62 1 2 0.0895 21.28545767677515 21.211849491547156 13.423770601468053 0 0 0
63 1 6 0.1829 19.738284163669302 15.874986676941884 15.9510746155579 0 0 0
64 1 1 0.04 18.405969852395078 21.264021220611486 14.330223499691884 0 0 0
65 1 2 0.0872 18.852747221476182 19.845028496398058 15.934756724437143 0 0 0
66 1 1 -0.0645 21.232433526697758 14.896546626313622 12.681405298776601 0 0 0
67 1 2 0.0866 21.588358858448213 18.743421568630897 16.441678063324883 0 0 0
68 1 1 -0.0457 21.193702710908187 21.599057981361405 12.414015169455967 0 0 0
69 1 2 0.0839 20.321400631523964 16.854080208512727 12.963892057507973 0 0 0
70 1 2 0.0866 19.543775819496897 20.42308694871923 20.6320720786126 0 0 0
71 1 1 -0.0645 20.099084904668405 21.405115312618904 10.256467944883072 0 0 0
72 1 2 0.0866 19.420600298631488 20.882955958872557 9.59403647912639 0 0 0
73 1 2 0.0896 25.087539111593053 20.93551069543044 17.76977531190567 0 0 0
74 1 6 0.157 22.57935711375865 12.591537065588748 11.602906275345749 0 0 0
75 1 1 -0.0531 23.275559415106546 15.644108458728367 19.250082840570922 0 0 0
76 1 11 -0.2514 24.286144070888632 21.111685440762674 20.3763424208629 0 0 0
77 1 1 0.0277 22.25667297299848 15.329416234189624 20.170640266138623 0 0 0
78 1 8 -0.3506 24.244313122974464 19.56158010717001 15.751786751639822 0 0 0
79 1 10 0.2266 24.145549463800396 16.239845429958596 16.954195168449235 0 0 0
80 1 11 -0.2514 24.081434096518375 16.20142290707132 15.558258040396653 0 0 0
81 1 1 0.0077 23.105719236682987 15.741171729761815 14.62367391677507 0 0 0
82 1 1 -0.0091 23.51368738065875 19.719722483668185 16.96027259809227 0 0 0
83 1 6 0.1829 24.913723489511728 16.56688346402924 15.113845294021864 0 0 0
84 1 2 0.0866 22.13267771056453 19.524568548950594 20.583480864031422 0 0 0
85 1 4 -0.2763 25.168805078916897 16.679092423670074 17.449742282706172 0 0 0
86 1 1 -0.0632 22.5171456094434 19.60716416687958 19.574479529942963 0 0 0
87 1 6 0.157 23.81128445458696 19.235105023196756 14.919510451763433 0 0 0
88 1 1 -0.0444 24.173329996337586 20.397895201131313 18.003201342348472 0 0 0
89 1 2 0.0866 23.27851945012733 12.842849913890975 19.9336680085365 0 0 0
90 1 2 0.0871 24.271504217366946 15.829435339310027 19.6400576772917 0 0 0
91 1 1 -0.0444 23.20390749655779 14.458895481005948 14.042390312512536 0 0 0
92 1 2 0.0896 24.0097135245771 13.796132784115125 14.345964131950975 0 0 0
93 1 2 0.0839 24.77194232388071 13.546881872340878 16.94048022467266 0 0 0
94 1 1 -0.0632 22.481601217940458 12.291123812638311 20.42526410791158 0 0 0
95 1 1 0.0077 23.687279050214205 20.347387514897886 19.324232740436337 0 0 0
96 1 8 -0.3506 22.346809112958834 12.694212142651667 12.569907055061146 0 0 0
97 1 1 0.0277 23.018308204754682 15.779551599970407 17.86452888716096 0 0 0
98 1 2 0.0866 22.04006814781297 17.625307510912037 14.564819877016049 0 0 0
99 1 1 -0.0645 22.241396708277627 19.148763302558695 17.2067288518932 0 0 0
100 1 1 -0.0632 22.099916494874872 16.61706672372084 14.17037463566173 0 0 0
101 1 1 -0.0091 22.27756367608385 14.028054327706963 13.065252911101478 0 0 0
103 1 6 0.157 23.727507760023837 19.21710725092429 14.927750291200352 0 0 0
104 1 6 0.157 22.581146265791627 12.522286148170021 11.579206298556368 0 0 0
149 1 2 0.0839 32.192373843161086 18.02319186409231 19.364458398444 0 0 0
150 1 6 0.1829 32.412112465276884 13.575727177150013 15.156593779155207 0 0 0
148 1 2 0.0896 32.11022672084749 12.499385224268861 17.196764157883273 0 0 0
105 1 6 0.1829 30.09548224502264 15.233100051520799 16.537992977224437 0 0 0
106 1 1 -0.0531 30.086194112608215 13.960316652263824 14.532688981215927 0 0 0
107 1 4 -0.2763 27.552291491289587 16.461881363951814 15.145328602946831 0 0 0
108 1 10 0.2266 28.01488022641722 21.175135606295573 18.982407528888366 0 0 0
109 1 1 0.0078 29.6898854120819 17.10591033110503 17.215889566270782 0 0 0
110 1 1 -0.043 29.025588060044058 18.34429870591344 17.10878152316099 0 0 0
111 1 1 0.0078 29.464078947077265 19.44725994110704 17.86634194994708 0 0 0
112 1 11 -0.2514 28.66687447346443 20.618451582637952 17.891256755411515 0 0 0
113 1 2 0.0896 28.160558890296933 18.455858512133087 16.463079963279746 0 0 0
114 1 2 0.0866 31.282250086723476 16.028541520874757 18.195187160335166 0 0 0
115 1 10 0.2266 31.773455891254518 12.180809577316172 13.809971590523327 0 0 0
116 1 2 0.0866 25.99975147427779 12.016647020978233 15.600464333918655 0 0 0
117 1 2 0.0866 31.001278480602526 20.2017999331451 19.204440297336195 0 0 0
118 1 4 -0.2623 25.867899873519622 12.57180317877116 12.065636234803945 0 0 0
119 1 11 -0.2514 28.039021086245185 13.606133536090274 20.242422740938004 0 0 0
120 1 1 -0.0531 27.95960490496849 19.144521966536264 20.51207793120897 0 0 0
121 1 2 0.0871 27.844884969370174 18.506302644923707 19.641567190780425 0 0 0
122 1 1 -0.0632 26.480716130602463 12.401565879609812 16.490990209638273 0 0 0
123 1 1 0.0277 28.132394692831905 20.528051635415984 20.334850734024847 0 0 0
124 1 1 -0.0801 31.2946915402297 18.11309756802657 18.75745335063745 0 0 0
125 1 1 -0.0801 25.76455891741128 13.298835265147137 17.28665356083993 0 0 0
126 1 1 -0.0632 30.630570439791946 19.34465100446881 18.650014914284437 0 0 0
127 1 6 0.1829 28.45999192178374 21.018398611415822 16.98325920083943 0 0 0
128 1 1 -0.0632 30.789864396495734 16.990833711142383 18.08364631113881 0 0 0
129 1 2 0.0896 29.298476079664365 12.170702077079907 18.349584680689272 0 0 0
130 1 12 0.2765 27.00148545470523 12.129107396096998 12.137119278946047 0 0 0
131 1 6 0.1829 28.04442257929904 14.582398820923522 20.529816078414438 0 0 0
132 1 1 -0.0521 29.4266540116382 12.336015675101411 12.869104759479486 0 0 0
133 1 1 0.0278 30.427004607853327 12.872163910546147 13.703654823402708 0 0 0
134 1 1 -0.0521 27.78233616798543 13.888267287865666 13.774614795504586 0 0 0
135 1 1 0.0278 28.775323667176835 14.485643202236389 14.578225338727616 0 0 0
136 1 1 -0.0632 26.30183316187643 13.806829775475705 18.488541895510796 0 0 0
137 1 10 0.2266 28.471661276077153 15.709581531673212 15.419650744360446 0 0 0
138 1 2 0.0866 25.703461047108153 14.468038225658349 19.11037279794063 0 0 0
139 1 2 0.0872 29.648626556504084 11.449379263880056 12.282625202081615 0 0 0
140 1 2 0.0871 30.844767158260524 14.388314399303415 15.17112330614927 0 0 0
141 1 1 0.04 28.100105602018374 12.819329032769229 12.909417496472685 0 0 0
142 1 1 0.0078 27.57549985737677 13.367712708063184 18.91077391886079 0 0 0
143 1 2 0.0872 26.748234765897934 14.21712281728238 13.86542898828546 0 0 0
144 1 11 -0.2514 29.405641084387472 15.961273321895336 16.41964192999524 0 0 0
145 1 1 -0.043 28.324768728548463 12.541403877483262 18.04589090696348 0 0 0
146 1 1 0.0078 27.78004179770948 12.028006299259612 16.856619042507045 0 0 0
147 1 4 -0.2763 31.809300440363298 13.19706846605297 19.380954282710263 0 0 0
151 1 1 0.0277 14.534821867204288 16.778883725851262 21.726357948732762 0 0 0
152 1 1 -0.0531 14.6352106902227 15.385596208401719 21.512347129306324 0 0 0
153 1 2 0.0871 13.733949911104428 14.791195119248664 21.41331998035358 0 0 0
154 1 6 0.1829 17.994691426738758 13.440329320152095 20.832068594285918 0 0 0
155 1 10 0.2266 15.966128738708242 13.256548195002194 21.056431936193174 0 0 0
156 1 4 -0.2763 12.134552873153451 16.82395352043534 21.760197181804127 0 0 0
157 1 1 -0.0632 12.002429846940304 20.835633253492208 21.046218709474577 0 0 0
158 1 10 0.2266 13.174490219711982 17.45872369724155 21.774615973260076 0 0 0
159 1 1 0.0277 15.885045311435517 14.73022480901328 21.430109328124683 0 0 0
160 1 4 -0.2763 14.953161835371644 12.619156758681418 20.82054103447407 0 0 0
161 1 1 -0.0531 15.731451890741301 17.50268211421793 21.919207998063847 0 0 0
162 1 6 0.1829 14.04653736954007 19.299323280097163 21.584321538655782 0 0 0
163 1 11 -0.2514 13.170743531641643 18.846372472019716 21.799124740806256 0 0 0
164 1 1 -0.0531 17.05144093770273 15.473209144436874 21.691083276073474 0 0 0
165 1 2 0.0871 14.928315608309136 12.617867045683667 28.86542732568194 0 0 0
166 1 4 -0.2763 12.816822148876106 15.910837837592378 28.638566221031073 0 0 0
167 1 1 -0.0632 16.61863396504928 17.899748584468462 25.10603180124942 0 0 0
168 1 6 0.1829 13.616938933093742 12.488667964459863 23.489291964937227 0 0 0
169 1 1 0.0078 15.29764134258171 20.380939269295475 24.981295843231546 0 0 0
170 1 2 0.0871 12.270400326044252 13.192885029133425 22.581675771725767 0 0 0
171 1 1 -0.043 16.562548118734124 12.785919970091644 24.836147528685135 0 0 0
172 1 2 0.0866 17.126787152748218 16.94414570634685 25.156210869861376 0 0 0
173 1 1 -0.0531 14.040300533691072 20.855009714246314 31.932241062493134 0 0 0
174 1 2 0.0896 16.740327511848196 13.796899109349908 24.485164929546446 0 0 0
175 1 11 -0.2514 18.191864339462967 18.583395540670526 23.379006916357287 0 0 0
176 1 6 0.1829 13.311624657894805 12.838278203243336 29.18734769181827 0 0 0
177 1 10 0.2266 13.83719224516587 14.21884258617141 24.5826787076155 0 0 0
178 1 2 0.0871 15.68838563524797 18.57468818184658 22.061359066830626 0 0 0
179 1 1 0.0078 17.58179889037282 12.043914383304028 25.451348029986562 0 0 0
180 1 10 0.2266 13.387852075926814 14.854869366631371 28.850638446737108 0 0 0
181 1 2 0.0839 15.15535775122838 17.384610747832014 26.619143537502836 0 0 0
182 1 1 -0.0801 15.500873030346582 18.140266703475575 25.919114545134278 0 0 0
183 1 1 -0.0632 14.821891099151491 19.362487865826772 25.827315963156234 0 0 0
184 1 10 0.2266 17.82611031873031 17.153020628110774 28.50574241535561 0 0 0
185 1 1 0.0278 14.00500035635252 21.253848208827414 30.583726041035284 0 0 0
186 1 1 0.0277 12.487934055906477 14.689084882958293 24.103316354509055 0 0 0
187 1 11 -0.2514 11.801138031288257 20.21264982493746 30.267443813581867 0 0 0
188 1 1 -0.0801 17.57530647192731 16.127606976585497 32.02291572374904 0 0 0
189 1 1 -0.0531 15.535308852026924 13.514111901045931 28.852789651667816 0 0 0
190 1 4 -0.2763 14.436758662725207 14.792194625363928 25.478138079848573 0 0 0
191 1 2 0.0866 13.907525953518352 19.501014547017682 26.395713420681783 0 0 0
192 1 1 -0.0521 15.214540094395415 21.586317526435305 29.94345349245322 0 0 0
193 1 4 -0.2763 17.304231828488064 18.241068933347215 28.682649965392894 0 0 0
194 1 1 -0.0521 16.46791127286687 20.85443217384785 31.898363526817338 0 0 0
195 1 1 0.0078 17.098711974153964 18.892775684433992 24.239245332893628 0 0 0
196 1 1 -0.0531 11.847292694625699 15.735968649680387 24.772918319701837 0 0 0
197 1 1 -0.0632 16.38760359749342 15.559065838015785 32.504942554114564 0 0 0
198 1 1 0.0078 15.30064929523113 12.201994882442559 24.642890806536972 0 0 0
199 1 1 -0.0531 17.69700662620251 14.609878750016502 28.765430697100392 0 0 0
200 1 11 -0.2514 14.524155899713291 21.571518679238878 24.880376468104846 0 0 0
201 1 1 0.04 16.450235418546917 21.352921239623523 30.58000230931636 0 0 0
202 1 1 0.0078 12.07505449926969 19.74146319806825 21.925819413107632 0 0 0
203 1 2 0.0896 16.857447767278277 20.931870730389463 23.570963707070796 0 0 0
204 1 1 -0.043 16.47397278791721 20.158500692507506 24.228319265416097 0 0 0
205 1 11 -0.2514 12.725929386648092 13.667115257164214 29.123568390448153 0 0 0
206 1 11 -0.2514 14.234701482573076 12.970987149592254 24.126987689939874 0 0 0
207 1 6 0.1829 12.010987716315618 19.789001906858314 31.164146236548998 0 0 0
208 1 10 0.2266 17.639364953474818 12.102540918925683 29.014479923082366 0 0 0
209 1 1 0.0277 16.940665025907833 13.426502421061173 28.87406821126431 0 0 0
210 1 10 0.2266 12.752453967936594 21.093856488508294 29.758751870629858 0 0 0
211 1 2 0.0872 17.416672549174276 20.644646108068944 32.38476913717682 0 0 0
212 1 1 -0.0531 15.661712110511461 15.928583103179585 28.79343475706161 0 0 0
213 1 1 0.0277 17.06286724377896 15.870223336125095 28.70907323973214 0 0 0
214 1 1 0.0277 14.887725033617176 14.75972277309524 28.834012960828318 0 0 0
215 1 2 0.0871 15.162010975332848 16.89119557902512 28.762818556987003 0 0 0
216 1 2 0.0871 12.414178350424999 16.25232391088859 25.536880775873573 0 0 0
217 1 4 -0.2763 14.70365836931602 12.051507199909407 31.58150199382601 0 0 0
218 1 10 0.2266 18.245977769980836 17.604521955420132 22.377365835886998 0 0 0
219 1 4 -0.2763 12.713545161266948 21.488557240165854 28.604324158804353 0 0 0
220 1 1 0.0277 16.986087738360546 16.85650030720313 21.98590767567404 0 0 0
221 1 2 0.0896 12.066765385987921 18.683846271417043 28.07422434791073 0 0 0
222 1 12 0.2765 17.74597139205731 21.503769090247065 29.83657412241298 0 0 0
223 1 1 -0.0531 11.779185207923677 13.99373885569558 23.112149992340502 0 0 0
224 1 2 0.0839 17.61949196839153 17.19431889695131 31.818191852591184 0 0 0
225 1 1 0.0078 11.33649522153355 13.404100326807438 29.235724844087816 0 0 0
226 1 2 0.0871 17.996927324219616 14.932590062094757 21.697091276178032 0 0 0
227 1 10 0.2266 14.36435996727465 12.575667833482264 32.62927675495403 0 0 0
228 1 1 0.0078 16.302277602221135 14.172347919053685 32.7038466470419 0 0 0
229 1 1 0.0278 13.082056543143452 12.181483533767421 33.3215341457052 0 0 0
230 1 10 0.2266 15.225522023681497 19.95421993365692 33.93214283803099 0 0 0
231 1 2 0.0896 13.396545071015202 17.799171448840045 34.01124297644367 0 0 0
232 1 6 0.1829 16.44786266170069 18.422283234715795 33.28165980569726 0 0 0
233 1 1 0.0278 15.263969640225037 20.602392861478744 32.578803797237704 0 0 0
234 1 11 -0.2514 15.850472095723319 18.716074175459795 34.046617306911315 0 0 0
235 1 11 -0.2514 15.087712057079006 13.618307734597119 33.18756168626914 0 0 0
236 1 4 -0.2763 12.430023262446433 15.753271773841604 32.800344085303344 0 0 0
237 1 1 -0.0531 12.118508328373503 11.455027609745969 32.59895995236449 0 0 0
238 1 6 0.1829 14.6482375170792 14.130037018007307 33.939563544254874 0 0 0
239 1 2 0.0896 17.368862891057564 12.291036907301265 32.63466054885893 0 0 0
240 1 10 0.2266 11.70182167284809 15.63596307083608 33.77311823964921 0 0 0
241 1 1 -0.043 17.426846973351143 13.361580398104998 32.45496645277453 0 0 0
242 1 2 0.0871 13.11378098077608 20.60986124556132 32.443029412774266 0 0 0
243 1 2 0.0866 15.513012488512679 16.183362019112547 32.658355302637176 0 0 0
244 1 6 0.1829 13.930699851155362 21.72394337612941 25.68021334504099 0 0 0
245 1 2 0.0866 11.710988173027323 11.311826370159668 28.945010746333583 0 0 0
246 1 4 -0.2623 23.67995321211257 21.225300484114467 34.49552573249557 0 0 0
247 1 1 -0.0632 20.071107920266368 21.292486917170606 20.982254273057176 0 0 0
248 1 1 0.0078 21.877738514319027 12.789690993297421 21.592108050841563 0 0 0
249 1 2 0.0871 21.10024161531869 15.846265708291492 25.140617878733874 0 0 0
250 1 2 0.0871 18.781071147616466 14.54189400248783 28.744110419132348 0 0 0
251 1 1 -0.0632 19.462197339000994 19.164010546775387 26.74232071898823 0 0 0
252 1 2 0.0866 21.341021147329553 21.564887475892153 31.254190347781655 0 0 0
253 1 1 0.0078 19.929226951888136 17.983687827995457 27.357301049574502 0 0 0
254 1 1 -0.0632 21.555090448373118 19.33544193322282 25.522425696197022 0 0 0
255 1 4 -0.2763 18.840946432106424 12.004797913095357 28.83935136793948 0 0 0
256 1 10 0.2266 20.87412029889109 13.166534845192217 30.99819771977854 0 0 0
257 1 11 -0.2514 19.06666154267594 17.007260579440924 27.912680179707607 0 0 0
258 1 6 0.1829 19.36979624723432 16.058570302973287 27.731198442973607 0 0 0
259 1 10 0.2266 19.43371224077218 13.752963281954163 25.586207472263272 0 0 0
260 1 2 0.0871 21.079777894049535 11.76491428163382 26.61907531006753 0 0 0
261 1 6 0.1829 19.579518084352582 11.711942258511653 25.654677871473456 0 0 0
262 1 1 -0.0632 18.687302772720628 15.310872704048025 31.752094494395514 0 0 0
263 1 4 -0.2623 18.768746042460716 20.95206459696181 30.19316648524321 0 0 0
264 1 11 -0.2514 18.920117553466177 12.47135744246767 25.53071450691222 0 0 0
265 1 4 -0.2763 21.118413059959668 14.142309511063122 30.312204295031652 0 0 0
266 1 1 0.0277 20.90747121420125 13.81614022990145 25.859109182728638 0 0 0
267 1 6 0.1829 19.07972322550494 18.976899599533063 23.679056896709 0 0 0
268 1 4 -0.2763 18.75516688589879 14.759972805692305 25.48275265917545 0 0 0
269 1 2 0.0866 19.571771201852105 15.771057142053033 31.330808700595167 0 0 0
270 1 2 0.0866 18.44224074752419 19.508671643457074 26.88801047304377 0 0 0
271 1 2 0.0896 20.43292385080219 12.419807042649325 23.161940121310263 0 0 0
272 1 1 0.0078 18.62784256986612 13.917687542258836 31.976173307332477 0 0 0
273 1 1 -0.043 20.887134730174324 12.036349151533068 22.251064793214287 0 0 0
274 1 1 -0.0632 21.407126419314608 20.527691054647995 31.57598889171035 0 0 0
275 1 2 0.0839 19.93625202524513 20.767089978470437 25.36987048610856 0 0 0
276 1 2 0.0896 21.62210435995913 16.724603304662377 27.747528575988518 0 0 0
277 1 1 -0.043 21.26608604709084 17.591224917973715 27.190476171932257 0 0 0
278 1 11 -0.2514 19.73271775870559 13.03249310865809 31.785503142026496 0 0 0
279 1 1 -0.0801 20.294883836035893 19.860846285267428 25.852317778784787 0 0 0
280 1 1 -0.0531 21.587128238173033 12.700965137972513 26.39708873949136 0 0 0
281 1 1 -0.0801 20.432990166531035 21.328399812846204 22.33075993458303 0 0 0
282 1 1 -0.0531 21.618432269103725 15.009234487282072 25.601782051748287 0 0 0
283 1 6 0.1829 19.67099493635514 12.185015053406055 32.33693669162479 0 0 0
284 1 2 0.0839 20.153302973690337 20.48680785887686 22.96180435455706 0 0 0
285 1 1 0.0078 21.581844010037614 17.84383822401499 32.39673764086647 0 0 0
286 1 4 -0.2763 19.322575343512842 17.25822015871385 21.92053043030723 0 0 0
287 1 11 -0.2514 21.50895549240377 16.508666309478592 32.864741871682654 0 0 0
288 1 6 0.1829 20.61446256128905 16.260154678571187 33.265301075271594 0 0 0
289 1 11 -0.2514 20.432367901461113 21.148978252410533 33.724297719068865 0 0 0
290 1 2 0.0871 20.15641878631242 14.89872575989383 34.37674460625787 0 0 0
291 1 2 0.0896 20.757730623404903 18.518220627431223 34.26011942813075 0 0 0
292 1 1 -0.043 21.079689623530122 18.820053238549708 33.26679095826993 0 0 0
293 1 1 0.0078 20.97237691258111 20.160355773559363 32.861082818297454 0 0 0
294 1 10 0.2266 22.590824359081957 15.181949639350318 21.642374747918446 0 0 0
295 1 10 0.2266 24.582165829771757 20.646361451856663 21.663154989889183 0 0 0
296 1 11 -0.2514 22.43246334154589 13.92451759514396 22.21765054312475 0 0 0
297 1 2 0.0839 24.538742081584374 13.156421034804294 23.29944649406985 0 0 0
298 1 2 0.0871 25.03402328057121 20.1768357144748 24.339939652720098 0 0 0
299 1 10 0.2266 24.336366121687288 21.59440664684165 26.665959819182326 0 0 0
300 1 10 0.2266 25.26978977443584 15.639943048405666 29.493362736028242 0 0 0
301 1 6 0.1829 23.92290301340871 18.386126511551584 25.432105590474098 0 0 0
302 1 1 0.0078 22.033276575336785 18.173586200657603 26.159080946720064 0 0 0
303 1 1 0.0078 25.155464222073874 18.10397572486517 29.95542837927815 0 0 0
304 1 1 -0.043 25.07911717651052 18.614293506681655 28.644821177571846 0 0 0
305 1 1 0.0078 25.211685489885756 19.990605517049072 28.39698728687394 0 0 0
306 1 11 -0.2514 24.802908999100207 16.754452959873827 30.176516268991307 0 0 0
307 1 2 0.0896 24.847815502676337 17.942841354504022 27.82587367984805 0 0 0
308 1 1 -0.0632 22.006248387316635 18.20907120037453 31.098889883337133 0 0 0
309 1 6 0.1829 22.907214364759795 13.722025060181595 23.09998119229896 0 0 0
310 1 1 0.0277 22.989991854548215 15.118260124566103 25.919116662164456 0 0 0
311 1 4 -0.2763 24.826030372909244 11.72691955033536 27.65366171263257 0 0 0
312 1 1 -0.0531 24.792080336405583 21.21599750603233 24.144453606647737 0 0 0
313 1 10 0.2266 23.70292279128878 11.585159327825165 27.212125672171968 0 0 0
314 1 11 -0.2514 25.087196873939575 20.494819144823836 27.062599853679277 0 0 0
315 1 10 0.2266 23.816922762660553 16.363398817050815 25.662921592994348 0 0 0
316 1 2 0.0871 23.531716951865203 13.342872758352307 31.32386373363837 0 0 0
317 1 6 0.1829 23.87702297193543 16.661372765377624 30.59702201568337 0 0 0
318 1 1 -0.0531 23.231875603477835 12.304280427772179 31.22780677291602 0 0 0
319 1 2 0.0871 24.71996129663746 13.968758683101859 26.588892897364985 0 0 0
320 1 4 -0.2763 24.519077449830665 14.688379876889686 29.366343866166496 0 0 0
321 1 1 -0.0531 23.646824333322087 13.968757008751854 26.41241066666126 0 0 0
322 1 2 0.0839 22.171752285110426 19.8499486942184 29.679222824654776 0 0 0
323 1 4 -0.2763 25.01309906143685 16.248260878492395 25.457603975330006 0 0 0
324 1 1 0.0277 22.956779808665928 12.77194481424924 26.664748719272755 0 0 0
325 1 11 -0.2514 23.28293484710547 17.654434388439746 25.715552879544582 0 0 0
326 1 1 0.0277 24.654212211734666 21.64949716924235 22.79839388503904 0 0 0
327 1 4 -0.2763 23.14911749009119 16.07480111570967 22.254039109767284 0 0 0
328 1 2 0.0866 22.16042987858494 19.832654281832955 24.767830494901236 0 0 0
329 1 4 -0.2763 24.587727191180104 19.45389538325362 21.90870696191748 0 0 0
330 1 2 0.0866 22.415825760327245 17.476719285113845 30.40481323070976 0 0 0
331 1 1 -0.0801 21.892355299755668 19.552473402149502 30.68734988758226 0 0 0
332 1 1 0.0278 21.85633112433653 12.033994829039 31.081881871504898 0 0 0
333 1 4 -0.2763 23.69476986896042 15.912797339512537 32.80066283383567 0 0 0
334 1 2 0.0872 24.27420247847045 13.756733633529919 33.872127085142694 0 0 0
335 1 10 0.2266 22.562859260641257 15.680966299098143 33.18678924162028 0 0 0
336 1 1 -0.0507 23.273702142178013 13.543389495072695 34.24733802538441 0 0 0
337 1 1 0.0278 22.2492131067475 14.478395512396729 34.04728315353426 0 0 0
338 1 1 0.0278 24.171921002774383 11.251512912564655 31.33935464848085 0 0 0
339 1 1 -0.0632 25.38903050846228 18.970257891902452 31.041050494359492 0 0 0
340 1 1 -0.0531 28.227248771413457 21.35660763645572 21.464611693006603 0 0 0
341 1 1 0.0277 27.821434201990375 18.588541143599734 21.79658606001547 0 0 0
342 1 2 0.0871 32.06868366057342 14.661942220509001 21.628423744914105 0 0 0
343 1 10 0.2266 28.558980730546345 12.715467499275118 21.190046934838957 0 0 0
344 1 4 -0.2763 27.422791407979265 16.421522318039965 20.925703194531366 0 0 0
345 1 6 0.1829 25.473952021335347 19.9266657493737 26.323171142208274 0 0 0
346 1 1 -0.043 32.129260376465616 17.592906508528596 31.823554635987758 0 0 0
347 1 1 0.0078 27.19673219047245 15.25003818655265 23.570439972469686 0 0 0
348 1 1 -0.0531 27.712589472299427 16.50800438071517 29.22853993314404 0 0 0
349 1 11 -0.2514 27.882050489583996 21.22510655462406 25.187347770919583 0 0 0
350 1 1 -0.0531 27.04420710944983 14.426426744025003 28.207433842868305 0 0 0
351 1 1 -0.0632 30.197480454783985 13.83894330140918 32.061733798020846 0 0 0
352 1 2 0.0871 27.56840416325913 17.35017033022346 29.890763764192286 0 0 0
353 1 1 -0.0531 27.737066840340063 19.466635254121627 22.902947718983246 0 0 0
354 1 1 -0.0531 29.342917050086587 15.1589755489063 28.02232046599529 0 0 0
355 1 6 0.1829 31.327847471902405 15.779518335796512 22.808929593774973 0 0 0
356 1 2 0.0896 31.122791104401422 17.800490213058385 32.16955534542291 0 0 0
357 1 6 0.1829 27.41063301316189 20.333933902163253 25.136841431917667 0 0 0
358 1 1 -0.0632 27.81998357082355 14.251657401898271 32.239778526448355 0 0 0
359 1 1 -0.0632 31.151432272506483 20.30598171270558 24.30143721143106 0 0 0
360 1 1 0.0078 27.526830992243294 13.306500453919643 25.013914514088388 0 0 0
361 1 10 0.2266 28.72998417498188 12.86684728296459 27.192811008897195 0 0 0
362 1 1 -0.043 28.632149116738624 12.300423074852969 31.042120857786426 0 0 0
363 1 1 0.0078 27.567488814925262 13.07264423161225 31.51934169222282 0 0 0
364 1 11 -0.2514 31.07229913594819 11.799870528261925 31.108033006091908 0 0 0
365 1 2 0.0866 25.43034835412828 18.603344264016748 32.06857063976415 0 0 0
366 1 1 -0.0801 25.54181457122511 13.462328332011564 23.596167740511337 0 0 0
367 1 1 0.0078 31.499270732525765 19.49628199290139 25.398866747110667 0 0 0
368 1 1 0.0277 28.352684407895648 14.20558560637789 27.74901496052395 0 0 0
369 1 6 0.1829 25.670377755690826 13.365285427386842 30.793065079628597 0 0 0
370 1 6 0.1829 27.73390771327958 17.20614089638471 23.963396715852614 0 0 0
371 1 2 0.0871 26.311511564815802 13.64515234670686 28.071410827189737 0 0 0
372 1 10 0.2266 27.645647087548262 17.094755436627068 21.91601900990093 0 0 0
373 1 1 -0.0632 26.0407763581333 14.646284918725904 23.044355495027474 0 0 0
374 1 6 0.1829 31.149114912968134 20.896294632734133 26.902282505409595 0 0 0
375 1 1 -0.0632 28.668282746393878 20.954001775947155 27.518958630972598 0 0 0
376 1 2 0.0839 25.638130689535874 21.023245870504127 31.64235225073205 0 0 0
377 1 11 -0.2514 26.233104302139736 12.675666651032085 31.257894073635427 0 0 0
378 1 4 -0.2763 29.235599663780512 12.027728972742892 27.914176008428356 0 0 0
379 1 6 0.1829 31.954017883856643 12.299506893411904 31.091366332464904 0 0 0
380 1 11 -0.2514 31.74230138239422 16.1379257400579 23.660829599818808 0 0 0