LAMMPS data file via write_data, version 29 Oct 2020, timestep = 274

6770 atoms
14 atom types
7195 bonds
18 bond types
11128 angles
23 angle types
19477 dihedrals
42 dihedral types

11.246593 53.753407 xlo xhi
11.246593 53.753407 ylo yhi
6.96606 62.059614 zlo zhi

Masses

1 12.01
2 1.008
3 12.01
4 16
5 14.01
6 1.008
7 16
8 14.01
9 1.008
10 12.01
11 14.01
12 12.01
13 1.008
14 16

Pair Coeffs # lj/cut/coul/long/omp

1 0.086 3.39967
2 0.015 2.59964
3 0.086 3.39967
4 0.21 2.95992
5 0.17 3.25
6 0.0157 1.06908
7 0.2104 3.06647
8 0.17 3.25
9 0 0
10 0.086 3.39967
11 0.17 3.25
12 0.086 3.39967
13 0.0157 1.06908
14 0.2104 3.06647

Atoms # full

2226 1 6 -0.0531 15.441985537486968 18.568102174895035 14.340779948955024 0 0 0
2456 1 1 -0.2415 11.657221262231717 18.307114109058254 17.367598413129638 0 0 0
5389 1 1 0.0866 11.626771216418618 13.679917728072656 14.552041468060935 0 0 0
6315 1 4 0.0839 18.259271235590663 15.302662479145605 18.661439803669865 0 0 0
5388 1 1 0.0277 12.877630684432964 12.18816917641049 16.59317290574941 0 0 0
2221 1 2 0.0871 14.264099961624112 15.183311655339024 14.040143737651556 0 0 0
49 1 2 -0.0092 12.69733945232586 20.92145750899402 20.21814050370216 0 0 0
5190 1 4 0.2765 17.4988755827258 19.149960885685655 13.738577939581706 0 0 0
2213 1 1 -0.0531 17.11634440470285 14.218062072488527 15.65137354397136 0 0 0
2216 1 1 0.1829 17.699091107812574 15.478180096792691 15.860153560897134 0 0 0
2217 1 1 0.0839 17.063704679922484 16.62936564886091 15.35441203144554 0 0 0
2218 1 1 -0.0632 15.801291097880723 16.535521779915708 14.714450220448539 0 0 0
2222 1 8 -0.0801 15.05546837601907 17.643760665166333 14.222019911450817 0 0 0
2224 1 2 -0.2763 17.602530546526353 17.56168424401178 15.432308854025585 0 0 0
2451 1 1 -0.2415 13.862224304918414 16.81353225011153 18.326804048713505 0 0 0
2457 1 2 -0.2763 14.686290277986876 16.244732402420198 18.779743851183838 0 0 0
2458 1 2 -0.379 15.06045176417448 18.529470653683095 17.742624387120983 0 0 0
5387 1 1 0.0872 12.993196617481173 11.760490679573604 15.260205643727433 0 0 0
5400 1 4 0.157 11.994758637436167 12.817385742114903 19.1671293641588 0 0 0
2215 1 1 0.1829 15.221002140683854 15.271241781537967 14.546826073524915 0 0 0
5386 1 1 -0.2763 12.324492030818591 12.482536538203002 14.236008591292835 0 0 0
5393 1 2 -0.2763 13.34014709999036 11.608928274854533 17.398217684931797 0 0 0
2452 1 1 -0.0632 14.055100216587773 18.10460407805242 17.778856592917286 0 0 0
2220 1 2 0.2765 15.409775173925954 13.15220412865092 14.817016848809933 0 0 0
2459 1 2 -0.2415 13.066467475483938 19.81751475618772 16.80901729099092 0 0 0
2219 1 2 0.0872 17.625073729884342 13.328532144235485 16.00784060431068 0 0 0
2453 1 1 -0.0801 12.95251006705419 18.83414978718941 17.269019021955327 0 0 0
2454 1 1 0.0077 12.57420866925278 16.248165884109877 18.305096949902723 0 0 0
5392 1 2 0.0586 12.353084142448788 12.122416423881985 13.208924941327277 0 0 0
2214 1 1 -0.0531 15.8843625321033 14.11493115843999 14.98208618318792 0 0 0
5391 1 1 -0.2415 12.246169511873198 13.398319863630133 16.915592849778093 0 0 0
5396 1 10 0.0078 12.121116034089253 13.731011423392813 18.380277974370593 0 0 0
2463 1 6 -0.043 12.439644486580729 15.006043026348062 19.92147802670805 0 0 0
2461 1 11 0.0078 12.358775741123113 14.990923186029548 18.911596584375726 0 0 0
284 1 1 -0.0632 17.568824006530953 11.564132717554077 20.017591739627587 0 0 0
5390 1 1 -0.043 11.644247359258364 14.145683060139163 15.88503736470144 0 0 0
2455 1 1 -0.0645 11.473876523869968 17.006746084307377 17.86558039244719 0 0 0
6641 1 6 0.157 15.430910886545858 18.58264587817793 14.333944699406556 0 0 0
5186 1 12 -0.2514 17.710389707887803 20.2987939378987 13.426707228364274 0 0 0
291 1 11 0.0896 17.235390327239315 12.773457005702895 20.723074953369803 0 0 0
6656 1 7 -0.2415 17.230180105520663 20.79795411207128 12.259285807599005 0 0 0
6655 1 6 0.157 18.91054600481599 19.46137340762763 11.575684263795983 0 0 0
137 1 8 0.0277 19.88754932750067 19.607124098263526 11.850101346063568 0 0 0
6305 1 1 -0.2415 20.938750109293487 15.183249117874396 19.695550877724116 0 0 0
287 1 2 -0.0531 18.98395040113542 12.590849828420538 18.73787738000863 0 0 0
281 1 1 0.1829 18.53709233169237 11.638085885126545 19.000442748978394 0 0 0
6309 1 2 0.0078 20.13812749308731 14.999864714025302 20.40849620585824 0 0 0
1407 1 2 0.0278 20.4750088705893 14.56942171006509 11.970751704311416 0 0 0
139 1 6 -0.0801 18.930493688820373 19.428811439343715 11.593945786504278 0 0 0
1402 1 1 0.0839 21.137363644064468 16.18706372386755 13.240648833178536 0 0 0
6306 1 1 0.0866 20.63139866236249 15.39524827649581 18.33543987984778 0 0 0
5189 1 4 -0.0521 18.411468606560895 20.630142591554044 18.61858289087699 0 0 0
512 1 2 -0.0521 20.82534503710285 18.567921960533454 18.71922447173623 0 0 0
6303 1 1 -0.2514 21.690262437687807 15.621492307000862 17.425129098904538 0 0 0
6311 1 10 0.0866 19.18629845470265 15.412780379104749 17.874667631251086 0 0 0
5180 1 1 -0.0632 18.725531584144665 20.89238953227235 15.666852518450568 0 0 0
506 1 1 0.0839 21.773482254280083 19.05623067628229 18.520134559542083 0 0 0
2223 1 11 -0.2763 18.964481866083368 15.543567258990754 16.506633321778402 0 0 0
6308 1 2 0.0078 21.438533570957315 15.801103836452068 16.401339435736926 0 0 0
5185 1 10 0.2886 19.035367311352715 21.535018636658844 18.094373229465795 0 0 0
130 1 1 -0.0801 20.37639558550028 20.886059852602898 11.530105633135745 0 0 0
138 1 2 -0.2514 21.292781458587708 21.210724848620774 13.430562075726323 0 0 0
2225 1 6 0.1829 19.738332497163128 15.878516332850667 15.954155888994702 0 0 0
5181 1 1 0.0278 18.413560806886135 21.261574935954698 14.34101753209767 0 0 0
5184 1 2 -0.2514 18.859119113073135 19.842726698873996 15.93435568680776 0 0 0
1401 1 1 0.0896 21.23118820918101 14.89761298679011 12.680519550865094 0 0 0
511 1 2 0.3852 21.57732457232856 18.74656632053938 16.449885740716475 0 0 0
131 1 1 -0.0632 21.194851633719065 21.59935325208417 12.42075205558264 0 0 0
1408 1 2 0.1829 20.318204691177307 16.856373883782688 12.965728510822597 0 0 0
1379 1 2 -0.2514 19.54542446927409 20.428386829047383 20.631869196130378 0 0 0
127 1 1 0.1829 20.09488739079886 21.40966768816072 10.26214350591233 0 0 0
133 1 2 -0.0632 19.420001274762388 20.883963437114236 9.596389147924212 0 0 0
516 1 2 -0.0801 25.085781416465014 20.937006822093863 17.765807808839767 0 0 0
1413 1 6 0.0866 22.582068811711665 12.566116479473752 11.594103791699867 0 0 0
6301 1 1 -0.2514 23.278664998041712 15.63995135215259 19.247378020398926 0 0 0
514 1 11 0.0872 24.28605482399317 21.112799855568458 20.375022415590703 0 0 0
6304 1 1 -0.0496 22.257372061483835 15.328955948869007 20.170580149651858 0 0 0
515 1 8 0.0866 24.245389790054407 19.564826077459188 15.751085888275144 0 0 0
6312 1 10 -0.0632 24.146034899412708 16.237992134597178 16.955489067650962 0 0 0
1410 1 11 0.2266 24.081086640165026 16.20273413222507 15.56151467270617 0 0 0
1406 1 1 0.0871 23.10585618048958 15.740927267135921 14.625133206784472 0 0 0
508 1 1 0.0872 23.512505693571327 19.72070207153831 16.958684083304792 0 0 0
1414 1 6 0.0872 24.911328391472807 16.56670689795952 15.113931871896575 0 0 0
513 1 2 0.0872 22.132593083800316 19.52401947950942 20.58224751033883 0 0 0
6313 1 4 -0.043 25.169671838746336 16.68058855351708 17.450356781333596 0 0 0
507 1 1 -0.2763 22.517977931335682 19.605291340512437 19.569864145629833 0 0 0
517 1 6 -0.0632 23.777424460157157 19.227468140405936 14.92075914111826 0 0 0
509 1 1 0.0896 24.172060067356554 20.398560788339715 18.00245495981179 0 0 0
1493 1 2 -0.0531 23.27905587306061 12.843194609916903 19.933286952092132 0 0 0
6307 1 2 -0.0645 24.272961631943957 15.82760318806209 19.640099572760104 0 0 0
1405 1 1 0.04 23.204531052115282 14.458872749835715 14.041073963269275 0 0 0
1412 1 2 0.0866 24.0105750806484 13.79703846476571 14.345727588373117 0 0 0
2514 1 2 -0.2763 24.776945710578165 13.539580293445288 16.93442209067415 0 0 0
1487 1 1 0.0277 22.480028674427988 12.293330923070496 20.425503154273496 0 0 0
510 1 1 0.0278 23.687112480497998 20.346860109628324 19.322938775780813 0 0 0
1411 1 8 0.1829 22.344126291047395 12.69283856158832 12.566998320080113 0 0 0
6302 1 1 -0.0531 23.01950957607298 15.778618603040572 17.863578632029423 0 0 0
1409 1 2 0.0872 22.039805760650886 17.62550968601236 14.564885306055155 0 0 0
505 1 1 -0.2514 22.24223885116853 19.146038949452148 17.204711455154197 0 0 0
1403 1 1 -0.0632 22.10083190416539 16.61627522939546 14.169548566388869 0 0 0
1404 1 1 -0.0521 22.27818425091071 14.027388499793084 13.062914736531969 0 0 0
6658 1 7 -0.2415 23.795528190062885 21.470138951100527 13.78005428622474 0 0 0
6647 1 6 0.157 23.76622944108661 19.225259200082455 14.922049627717842 0 0 0
6697 1 6 0.157 22.581557102145272 12.541590509107111 11.585196654992844 0 0 0
713 1 6 0.0078 30.09582588807963 15.232358774262732 16.53783402538908 0 0 0
4551 1 1 0.0874 30.086280407400743 13.961188312176452 14.532133146289665 0 0 0
4560 1 4 0.0872 27.55283178689864 16.46431224462865 15.14429038247633 0 0 0
5921 1 10 0.0078 28.015266236158553 21.17617757593797 18.983436592033463 0 0 0
704 1 1 0.0278 29.689555016517545 17.106892187348024 17.216708619647786 0 0 0
705 1 1 0.0896 29.025400856498578 18.345479458168015 17.109367404254158 0 0 0
706 1 1 0.0866 29.463997568876547 19.448189645075253 17.867394619896313 0 0 0
710 1 11 0.0839 28.666357546788166 20.618780663732608 17.891283005781492 0 0 0
712 1 2 -0.0531 28.161231428914807 18.45640936207014 16.462466866375017 0 0 0
707 1 2 -0.0531 31.279570090855557 16.027033681338693 18.19599551061304 0 0 0
4557 1 10 -0.2514 31.771343747844245 12.178111148227797 13.812318285918424 0 0 0
2515 1 2 0.2266 25.99631180719095 12.02002911936683 15.604392784818895 0 0 0
709 1 2 0.0078 31.002140955119877 20.201389309598163 19.20443593346924 0 0 0
4559 1 4 0.157 25.86774472187768 12.574797527348505 12.064307197861197 0 0 0
2517 1 11 -0.0801 28.039702292472594 13.607918736963503 20.242410413955557 0 0 0
5915 1 1 -0.0801 27.960378914688352 19.142948406544097 20.511835334977253 0 0 0
5919 1 2 0.0078 27.84399437189991 18.507411933605106 19.641338557540006 0 0 0
2509 1 1 0.0896 26.479827243526433 12.401682690964396 16.492700406313222 0 0 0
5916 1 1 -0.0632 28.13342829625012 20.527172261483162 20.334529998999887 0 0 0
702 1 1 0.0871 31.295646737192595 18.11327424600334 18.75701757098055 0 0 0
2508 1 1 0.157 25.76499748546778 13.30041950657115 17.288264456110106 0 0 0
703 1 1 -0.0531 30.63122946657515 19.34403488148959 18.649807793611405 0 0 0
714 1 6 -0.043 28.46004964031369 21.018046525675057 16.98266287265123 0 0 0
701 1 1 0.0866 30.78984787429015 16.991223487250643 18.084249210579447 0 0 0
2518 1 2 -0.2763 29.296988951859962 12.166184371732218 18.34602550182558 0 0 0
4558 1 12 -0.379 26.996964517488944 12.122363311962715 12.141561802779625 0 0 0
2519 1 6 0.2266 28.045340569406072 14.583720796270038 20.532068656052726 0 0 0
4549 1 1 0.2765 29.429762783535242 12.341823502966868 12.866083596312972 0 0 0
4552 1 1 -0.0483 30.427522824153325 12.872545734203447 13.704387190023631 0 0 0
4547 1 1 0.0587 27.7822355784334 13.889473704071085 13.772751616166092 0 0 0
4550 1 1 -0.2623 28.772759551957012 14.482120953059413 14.580355311949955 0 0 0
2507 1 1 0.0896 26.299884796375366 13.81102955947456 18.48947915356277 0 0 0
4556 1 10 -0.0801 28.4709579316833 15.708944188643581 15.419289258212562 0 0 0
2513 1 2 0.2266 25.696696745605 14.473418616794936 19.11057923078818 0 0 0
4554 1 2 -0.2514 29.643387313813115 11.446081054393163 12.282769888861505 0 0 0
4555 1 2 -0.043 30.84393436525062 14.38750940160869 15.172303221033326 0 0 0
4548 1 1 0.2765 28.102464908858174 12.823598134247328 12.904120532625425 0 0 0
2510 1 1 0.3852 27.573421918445572 13.374066531147138 18.912168263277398 0 0 0
4553 1 2 -0.2763 26.74593543717089 14.213688205717306 13.86826187746742 0 0 0
711 1 11 0.1829 29.406866787871852 15.964060838970934 16.419066899607653 0 0 0
2511 1 1 0.1829 28.32449445018074 12.54410874178345 18.04573862656323 0 0 0
2512 1 1 0.0839 27.77938695333041 12.028545790576555 16.85678016282319 0 0 0
3506 1 4 0.1829 31.80869802220943 13.196123037892491 19.380326205960934 0 0 0
656 1 2 0.0078 32.11156710177591 12.501011452486734 17.196108228372328 0 0 0
708 1 2 0.0896 32.193486057725075 18.02278760540416 19.363436539496433 0 0 0
657 1 6 0.2266 32.41479066136909 13.57769890027181 15.15861058459717 0 0 0
6482 1 1 -0.0531 14.534326890197406 16.779144845887124 21.727796977131224 0 0 0
6483 1 1 0.2266 14.635152208032412 15.390557567693365 21.50950355050915 0 0 0
6488 1 2 -0.0801 13.734063481649018 14.788099195256587 21.418525985756222 0 0 0
293 1 6 0.2266 17.999322558464 13.447307390903632 20.835808497373215 0 0 0
6491 1 10 -0.2763 15.966076542498914 13.250806799853336 21.061676975390856 0 0 0
6493 1 4 0.0277 12.133644654104947 16.824923457538453 21.760117992205124 0 0 0
43 1 1 0.0896 12.00218882364966 20.835134258801048 21.046198820550117 0 0 0
6492 1 10 0.0871 13.174394820055689 17.458561248260384 21.773991637421773 0 0 0
6486 1 1 0.1829 15.884755536020709 14.734071875777996 21.429406101353685 0 0 0
6495 1 4 0.2266 14.952052842919274 12.621710673746596 20.817789534803115 0 0 0
6481 1 1 -0.0632 15.73124845269508 17.501876215262943 21.91950725666443 0 0 0
55 1 6 -0.0483 14.044571493027503 19.29925164643752 21.58168150553548 0 0 0
53 1 11 -0.2763 13.167994266445907 18.84623626127172 21.801270959618908 0 0 0
6485 1 1 0.1829 17.05215487017345 15.47718104704728 21.690388027126087 0 0 0
6234 1 2 0.3852 14.922643439322094 12.621243985887753 28.8653978491283 0 0 0
6239 1 4 -0.0632 12.817994137553821 15.910245067661847 28.638894228543414 0 0 0
2495 1 1 0.2886 16.618118635467383 17.90126983664109 25.101609949544034 0 0 0
1050 1 6 0.0872 13.61701464518623 12.488738300081842 23.48965524910186 0 0 0
2496 1 1 -0.2514 15.297505017632293 20.38309747044409 24.98534356895518 0 0 0
6518 1 2 0.0871 12.268059318144408 13.19387539076239 22.583387605512527 0 0 0
1041 1 1 0.0872 16.56300591465516 12.78724583058696 24.837561919762877 0 0 0
2501 1 2 0.0866 17.12717557550605 16.94683994143696 25.155869573154153 0 0 0
4636 1 1 -0.0632 14.04042864046661 20.855948926655582 31.933076306636277 0 0 0
1048 1 2 -0.043 16.740158681158427 13.796613291243016 24.48522811024652 0 0 0
2502 1 11 -0.0801 18.193650427044208 18.583150735227516 23.379768598828253 0 0 0
2729 1 6 -0.2763 13.316083053704448 12.831969258224568 29.185661161440372 0 0 0
6521 1 10 0.0866 13.836768980680729 14.220118034811968 24.582954444639217 0 0 0
6487 1 2 -0.0531 15.687778545028994 18.57335979045879 22.059732296342244 0 0 0
1040 1 1 0.0277 17.58186855092345 12.04473545029642 25.45223405426544 0 0 0
6235 1 10 -0.043 13.388510550564499 14.854375245624137 28.850541468130647 0 0 0
2500 1 2 -0.3506 15.156232432470677 17.384884094116693 26.62602692361378 0 0 0
2494 1 1 -0.0091 15.500519636305311 18.139605475471782 25.91873387372316 0 0 0
2493 1 1 -0.0801 14.821528394774248 19.362436968657818 25.828393022116543 0 0 0
6237 1 10 -0.0531 17.82628596865002 17.1526478959329 28.50782092734027 0 0 0
4635 1 1 0.0872 14.005147993054967 21.255294139055568 30.58382377803226 0 0 0
6516 1 1 0.0866 12.487795297274653 14.691165003903244 24.103088130468237 0 0 0
2894 1 11 -0.2415 11.800691213107257 20.21433784262736 30.270388375143366 0 0 0
2914 1 1 -0.0507 17.5747690046508 16.12849677198295 32.02314693482728 0 0 0
6230 1 1 0.0078 15.535364586535255 13.51392889555523 28.851472416715044 0 0 0
6525 1 4 -0.0801 14.436936016362083 14.790321607419221 25.479320992535772 0 0 0
2499 1 2 0.0866 13.90722844912016 19.49863660516833 26.39331148991062 0 0 0
4632 1 1 0.0866 15.214517454509517 21.588180305299918 29.94281403501252 0 0 0
6238 1 4 0.2266 17.303671633498013 18.240674045139972 28.679502940516123 0 0 0
4634 1 1 0.0866 16.468744123666507 20.855895035748357 31.89755787884726 0 0 0
2498 1 1 -0.0632 17.09899393317373 18.89382845132101 24.238815864834823 0 0 0
6515 1 1 0.0872 11.847877660252635 15.737622434964443 24.77143656493817 0 0 0
2913 1 1 -0.379 16.387937614301997 15.562626088425255 32.51072909429951 0 0 0
1042 1 1 -0.043 15.301011788121073 12.201610123987432 24.642823686808175 0 0 0
6228 1 1 -0.0531 17.69736619598967 14.609083832225998 28.766377818157483 0 0 0
2503 1 11 -0.0645 14.523573278331886 21.572724985302397 24.880758725753278 0 0 0
4633 1 1 0.0896 16.44996914622026 21.354578979308098 30.579820436563946 0 0 0
46 1 1 -0.0632 12.073027106579742 19.74187545570771 21.926686626857588 0 0 0
2504 1 2 -0.0632 16.85728322169522 20.93155240929481 23.571083837577557 0 0 0
2497 1 1 -0.2514 16.473839466396488 20.160538973932802 24.232256785395773 0 0 0
2727 1 11 0.0277 12.727260225127667 13.66626328408778 29.1235091720202 0 0 0
1046 1 11 -0.0632 14.234437082076681 12.97077843908776 24.126632671712752 0 0 0
2898 1 6 -0.0092 12.01351660150915 19.786617289623653 31.164674084507944 0 0 0
6236 1 10 0.0078 17.6389577232592 12.101522033026125 29.014769275927993 0 0 0
6231 1 1 -0.2763 16.94161100832866 13.42431090696518 28.87467461121302 0 0 0
4641 1 10 -0.0801 12.751955964330087 21.095300772988253 29.760231718174627 0 0 0
4639 1 2 0.0587 17.416650234757018 20.645803016363576 32.38447377253781 0 0 0
6226 1 1 -0.0507 15.662226068559633 15.928457357315676 28.794341984092508 0 0 0
6227 1 1 0.0078 17.06333772015805 15.869870254825953 28.709803989433937 0 0 0
6229 1 1 -0.0092 14.888147252492777 14.759578694336836 28.833559674186386 0 0 0
6232 1 2 0.0896 15.161967897097407 16.890450834023294 28.760935576651395 0 0 0
6519 1 2 -0.2623 12.416328149042013 16.24855673765171 25.533815497140665 0 0 0
3643 1 4 0.0866 14.70243960623315 12.052256718035874 31.582265837253264 0 0 0
6490 1 10 0.0078 18.246139902778566 17.604724052698238 22.375667879739108 0 0 0
4645 1 4 0.1829 12.714988029779036 21.487865260049677 28.604912048784172 0 0 0
6484 1 1 0.0866 16.98639622306821 16.85883983921459 21.98453722579491 0 0 0
2896 1 2 0.0873 12.067151019543218 18.681550953932934 28.073025283775436 0 0 0
4643 1 12 -0.0632 17.746068241256545 21.505780358176573 29.839580862300735 0 0 0
6513 1 1 0.2765 11.778296184173922 14.000162760539538 23.111219072204392 0 0 0
2920 1 2 -0.0507 17.61838155036622 17.194148801807167 31.817970883706952 0 0 0
2720 1 1 0.0866 11.336754008557554 13.404693705717902 29.234673147495474 0 0 0
6489 1 2 -0.2763 17.99498471194177 14.919334549847656 21.694055308662033 0 0 0
3639 1 10 -0.2763 14.362583880032846 12.576357515891669 32.630227140735855 0 0 0
2916 1 1 0.2266 16.303705122899327 14.171560975434383 32.701612020884866 0 0 0
3634 1 1 0.0078 13.081735352392975 12.181691166520654 33.32166536374508 0 0 0
4642 1 10 -0.2623 15.222627903157898 19.952371765462726 33.93203242226937 0 0 0
2868 1 2 0.0839 13.395503261106896 17.799398115185816 34.01073868413609 0 0 0
2869 1 6 0.0278 16.448510220658363 18.42075708515201 33.28068050247336 0 0 0
4637 1 1 0.2266 15.26486791665547 20.604187394407038 32.57809099220866 0 0 0
2867 1 11 0.0872 15.851512704079544 18.71592553765303 34.04537487948639 0 0 0
2923 1 11 0.0872 15.087667926015886 13.618047148177583 33.18612038810821 0 0 0
5940 1 4 0.0839 12.428851640952546 15.753738354385693 32.79774474285033 0 0 0
3633 1 1 -0.043 12.118589212251026 11.454911154515207 32.59835626374554 0 0 0
2925 1 6 0.0586 14.648952844193307 14.12965324939484 33.93832053764211 0 0 0
2924 1 2 0.0895 17.370017110335077 12.290717087570808 32.635136211322965 0 0 0
5936 1 10 -0.2514 11.702711612111699 15.639099718758017 33.77392973649662 0 0 0
2917 1 1 -0.0632 17.427187187680328 13.361794740849481 32.455002265314775 0 0 0
4640 1 2 0.0866 13.113217548232699 20.610600072451046 32.440857936750255 0 0 0
2919 1 2 0.0278 15.51299720028797 16.183718449795517 32.657806167761166 0 0 0
2505 1 6 0.1829 13.93405729610636 21.718905504992666 25.67873885509208 0 0 0
2723 1 2 0.2765 11.713300954606927 11.315357155875823 28.94732835200035 0 1 0
6045 1 4 0.0872 23.68009254712282 21.222402310415074 34.4955153705053 0 0 0
1373 1 1 -0.0632 20.07129644585394 21.294560952787428 20.982251818826754 0 0 0
1490 1 1 0.2266 21.873126541538046 12.79611879319114 21.590965061543283 0 0 0
5678 1 2 0.0078 21.10003911536941 15.846087660812028 25.139961492438484 0 0 0
6233 1 2 0.0896 18.781197904830506 14.541078291090633 28.744124098564274 0 0 0
1067 1 1 0.0078 19.461536105875087 19.165028870502898 26.74198923733861 0 0 0
1507 1 2 -0.379 21.341554717371196 21.565594785766255 31.254799194183395 0 0 0
1070 1 1 0.2266 19.92780339906907 17.983438835658564 27.353914710951557 0 0 0
1065 1 1 0.2266 21.555130578624258 19.334851665219805 25.519523742734933 0 0 0
6240 1 4 -0.2514 18.838642256898172 12.003650185213845 28.840120702577288 0 0 0
4828 1 10 0.2266 20.87476045697065 13.165042008078137 30.998764363159534 0 0 0
1074 1 11 0.0866 19.06585085465364 17.006976324681414 27.9106196518847 0 0 0
1078 1 6 0.0866 19.371956613881686 16.05886258530414 27.728967216451924 0 0 0
5681 1 10 -0.0632 19.43334577307198 13.752188713893169 25.585722902491852 0 0 0
5679 1 2 -0.2514 21.085430590908384 11.75889414441602 26.62019941790858 0 0 0
1049 1 6 -0.0632 19.579318123774694 11.709237898474989 25.65489380799099 0 0 0
2915 1 1 -0.2514 18.68800328944222 15.312896294805135 31.75490838535755 0 0 0
4644 1 4 -0.0802 18.767886550790244 20.948106718509557 30.194776192861372 0 0 0
1047 1 11 -0.2514 18.92017486596711 12.46847603580719 25.529524591745783 0 0 0
4832 1 4 0.2266 21.12035771224798 14.139085775684906 30.31108174399408 0 0 0
5676 1 1 -0.0531 20.906681615041432 13.815377559883952 25.859097179063966 0 0 0
2506 1 6 -0.2514 19.082383461635917 18.9794221373149 23.683357488866093 0 0 0
5685 1 4 -0.0521 18.754377285951225 14.760128027769698 25.48254502322114 0 0 0
2921 1 2 0.0278 19.570311136389215 15.771336269868257 31.330103332415298 0 0 0
1073 1 2 -0.0521 18.44211198446239 19.509768304099907 26.888706415427745 0 0 0
1496 1 2 0.04 20.43222962770766 12.421879335828535 23.16305239222117 0 0 0
2918 1 1 0.0277 18.627843451171525 13.917838156022569 31.97633244937494 0 0 0
1489 1 1 0.2266 20.884960895948876 12.040317368378435 22.250899897651866 0 0 0
1501 1 1 0.2886 21.40698457987773 20.529128792296437 31.574267144341032 0 0 0
1072 1 2 -0.0632 19.936383569152376 20.768010271220795 25.369498965007537 0 0 0
1076 1 2 -0.2514 21.619996092866 16.724732039611315 27.75343920407222 0 0 0
1069 1 1 -0.2763 21.265790395425377 17.59173897138819 27.196529452700744 0 0 0
2922 1 11 0.0586 19.73250357788152 13.0307926594702 31.784860964203336 0 0 0
1066 1 1 -0.0632 20.294965099259176 19.862192097219598 25.852980712162555 0 0 0
5675 1 1 0.0078 21.58633838680016 12.700923395966925 26.39777483983712 0 0 0
1374 1 1 0.0866 20.43238405488024 21.326469741631367 22.330779764515714 0 0 0
5673 1 1 -0.0632 21.61742843427606 15.009055976031897 25.60151167062481 0 0 0
2926 1 6 -0.0496 19.670752462917218 12.186040986364484 32.33912926039808 0 0 0
1380 1 2 0.1829 20.149192956922793 20.482471291377603 22.95991145433913 0 0 0
1502 1 1 0.1829 21.58349596536633 17.84342168282022 32.396012100601645 0 0 0
6494 1 4 -0.2763 19.322208971526027 17.255061095219375 21.918475452597924 0 0 0
1509 1 11 0.2765 21.509154795243465 16.50860536897636 32.864020430179146 0 0 0
1511 1 6 0.1829 20.613620686704568 16.26016046796667 33.265865359423636 0 0 0
1508 1 11 -0.2514 20.43307744291684 21.14701473534248 33.7250288492867 0 0 0
4130 1 2 -0.0801 20.15852157735661 14.89999433854134 34.376187987078765 0 0 0
1510 1 2 -0.0521 20.75854700330404 18.516976609165383 34.261422214030176 0 0 0
1503 1 1 -0.0801 21.080059645249058 18.819637106080673 33.26762613741143 0 0 0
1504 1 1 0.0078 20.972804594614132 20.160313618760036 32.86132254789334 0 0 0
6310 1 10 -0.0632 22.591377817780327 15.180904946566782 21.644005247138086 0 0 0
6387 1 10 -0.2514 24.581845517749247 20.649727295501282 21.665162648245587 0 0 0
1494 1 11 -0.2623 22.438101694664955 13.92121746213548 22.2214055125901 0 0 0
848 1 2 0.3852 24.525003655368167 13.169088703313976 23.2971072911645 0 0 0
6383 1 2 0.0078 25.03491002052413 20.177576032575715 24.339557186686957 0 0 0
6386 1 10 0.1829 24.334888076814853 21.592624653275635 26.664646153516745 0 0 0
6400 1 10 0.0866 25.26985349597206 15.63914365305553 29.492389253931286 0 0 0
1077 1 6 -0.2514 23.922902984754455 18.390134803376142 25.43204170313873 0 0 0
1068 1 1 0.0277 22.032401899889948 18.173698785338786 26.159654134425423 0 0 0
1922 1 1 -0.0521 25.155434379476834 18.103207070430617 29.956522755927594 0 0 0
1923 1 1 0.0278 25.078581443780486 18.61385470466087 28.645362509576145 0 0 0
1924 1 1 -0.2623 25.213357044316925 19.990511373410868 28.398881751587748 0 0 0
1929 1 11 -0.2514 24.79938769170732 16.75378793455121 30.178751929936638 0 0 0
1930 1 2 0.0866 24.845905861820192 17.94268278253205 27.825572648628285 0 0 0
1499 1 1 -0.0531 22.00588726396764 18.20885644809934 31.097803589144274 0 0 0
1498 1 6 -0.2514 22.914702741316145 13.711203805327727 23.104104090742382 0 0 0
5672 1 1 0.0866 22.98832681463674 15.120172033998365 25.918830401131125 0 0 0
5684 1 4 0.0078 24.82556243288439 11.727851242224771 27.651778156764404 0 0 0
6378 1 1 -0.2763 24.795096377757776 21.21746000241088 24.145418617375196 0 0 0
5680 1 10 0.1829 23.699797408874907 11.588756207192345 27.212341090075892 0 0 0
1928 1 11 -0.2763 25.091660076875197 20.49674410898788 27.06566920593032 0 0 0
5682 1 10 0.0277 23.817594801244365 16.3633284332923 25.662734337786322 0 0 0
4827 1 2 -0.2623 23.526058343729552 13.343500956721766 31.326453035678394 0 0 0
1931 1 6 -0.2763 23.86874137319849 16.665659629431072 30.59858693404301 0 0 0
4823 1 1 0.0871 23.231404228341376 12.304921054634804 31.22880761943339 0 0 0
5677 1 2 -0.2763 24.72376653393308 13.9601272230699 26.58978409029697 0 0 0
6404 1 4 -0.043 24.519217170895264 14.688074496665577 29.361553806033314 0 0 0
5671 1 1 0.0872 23.645995444342958 13.970658415349996 26.41274366336927 0 0 0
1506 1 2 0.0839 22.168835953683526 19.85180297196952 29.67888403549338 0 0 0
5683 1 4 -0.2514 25.0166582126683 16.242571530997708 25.45523813301023 0 0 0
5674 1 1 0.0866 22.954872711576932 12.774360674684111 26.664464909898875 0 0 0
1075 1 11 0.0871 23.28130065607419 17.654860704683767 25.712540170752103 0 0 0
6377 1 1 -0.2763 24.65447169039945 21.65180149906403 22.801512694407357 0 0 0
6314 1 4 -0.0801 23.148975817894122 16.076678819325174 22.25445467191337 0 0 0
1071 1 2 0.0078 22.160944783468786 19.833519589233696 24.767874434668922 0 0 0
6388 1 4 -0.0632 24.586226578536053 19.45484255367316 21.907635789389083 0 0 0
1505 1 2 0.2886 22.426855592050828 17.475835394306 30.40094472688309 0 0 0
1500 1 1 0.2266 21.892242140677375 19.55252922262167 30.68607989064519 0 0 0
4822 1 1 0.0866 21.85571052457382 12.033569104992763 31.0837151220923 0 0 0
4136 1 4 -0.0507 23.69383971172536 15.911101909655207 32.7987645758819 0 0 0
4129 1 2 0.1829 24.275538924231878 13.757998925860608 33.87105991673716 0 0 0
4132 1 10 0.0866 22.56256417133598 15.679380328362232 33.18534789455481 0 0 0
4124 1 1 0.0872 23.274486408159706 13.544480516143857 34.247573665133665 0 0 0
4127 1 1 -0.2415 22.248675738415894 14.47904634289986 34.048243970403256 0 0 0
4824 1 1 -0.0632 24.172589602636567 11.251876626332935 31.339737239278904 0 0 0
1919 1 1 -0.043 25.389707433820757 18.96983652797651 31.042625924651567 0 0 0
5913 1 1 -0.2514 28.231494710596497 21.35517396179212 21.463695110740698 0 0 0
5914 1 1 -0.2763 27.827174984186467 18.58432894236867 21.79738603876834 0 0 0
3501 1 2 0.2266 32.066909450845294 14.669925894025546 21.633672252394856 0 0 0
6595 1 10 -0.0632 28.5590707947846 12.713738275099153 21.188779815577583 0 0 0
5924 1 4 0.1829 27.420557265288885 16.426821951520342 20.925246062093784 0 0 0
1932 1 6 0.2266 25.470404741648345 19.926490170496923 26.319888551111994 0 0 0
3169 1 1 0.2266 32.1277081268133 17.59503488142407 31.82420355316346 0 0 0
844 1 1 0.0872 27.19474197036446 15.250605767468308 23.5713158893823 0 0 0
6395 1 1 0.0871 27.71061375817971 16.508227959735407 29.228191505577165 0 0 0
3287 1 11 0.0871 27.88257485760178 21.225312978569 25.186206891919504 0 0 0
6391 1 1 -0.0531 27.04631969834679 14.42527986955238 28.20784495466424 0 0 0
3025 1 1 0.0839 30.195054108289057 13.839816353903506 32.06169346671646 0 0 0
6399 1 2 -0.2514 27.576794096686932 17.348938439357838 29.88906871599768 0 0 0
5911 1 1 0.0278 27.734080004223117 19.466662576897633 22.901629210191178 0 0 0
6393 1 1 -0.043 29.344062245956533 15.159350217761425 28.02201092053954 0 0 0
2981 1 6 -0.379 31.330734155079263 15.773507003993293 22.80838345680031 0 0 0
3176 1 2 0.0078 31.12225703687995 17.799146404097925 32.17060097682935 0 0 0
3289 1 6 0.3852 27.40702236780564 20.336254076515804 25.128120105467477 0 0 0
3027 1 1 -0.2514 27.823870721757356 14.249181482307426 32.239939243679935 0 0 0
2971 1 1 -0.2763 31.151744200355722 20.304495298573357 24.303317399536873 0 0 0
846 1 1 -0.0632 27.52874792188002 13.304974613121754 25.014270293471878 0 0 0
6402 1 10 0.0871 28.7314743247034 12.86748330736136 27.19300237929044 0 0 0
3029 1 1 -0.0801 28.633364177194107 12.299268283489779 31.041969395394688 0 0 0
3030 1 1 -0.2514 27.571574657547366 13.06945082564362 31.51929176183683 0 0 0
3035 1 11 -0.2763 31.074083232881133 11.798628464512307 31.10658507117734 0 0 0
1925 1 2 -0.2763 25.432317924288526 18.605351983869337 32.07275036699488 0 0 0
842 1 1 0.0279 25.540758565552128 13.460754872279075 23.595490827556773 0 0 0
2974 1 1 -0.0531 31.499206154423803 19.496106561037333 25.400640746293288 0 0 0
6392 1 1 0.0277 28.35406313149222 14.205566020239809 27.74883826226294 0 0 0
3038 1 6 -0.2763 25.677447053918623 13.361702893824498 30.795212555250117 0 0 0
853 1 6 0.0586 27.733192574704113 17.207706396051744 23.963491954792108 0 0 0
6397 1 2 0.157 26.309862310787235 13.647304475291163 28.073924278824844 0 0 0
5920 1 10 -0.379 27.654444534908798 17.090766726213765 21.9154863595511 0 0 0
841 1 1 -0.0632 26.04188117195941 14.64326233280454 23.043607793831235 0 0 0
2982 1 6 -0.0092 31.149331881304672 20.898499894944774 26.902015468518606 0 0 0