LAMMPS data file via write_data, version 29 Oct 2020, timestep = 274

6770 atoms
14 atom types
7195 bonds
18 bond types
11128 angles
23 angle types
19477 dihedrals
42 dihedral types

11.246593 53.753407 xlo xhi
11.246593 53.753407 ylo yhi
6.96606 62.059614 zlo zhi

Masses

1 12.01
2 1.008
3 12.01
4 16
5 14.01
6 1.008
7 16
8 14.01
9 1.008
10 12.01
11 14.01
12 12.01
13 1.008
14 16

Pair Coeffs # lj/cut/coul/long/omp

1 0.086 3.39967
2 0.015 2.59964
3 0.086 3.39967
4 0.21 2.95992
5 0.17 3.25
6 0.0157 1.06908
7 0.2104 3.06647
8 0.17 3.25
9 0 0
10 0.086 3.39967
11 0.17 3.25
12 0.086 3.39967
13 0.0157 1.06908
14 0.2104 3.06647

Atoms # full

1 1 6 -0.0531 15.441986 18.568102 14.340780
2 1 1 -0.2415 11.657221 18.307114 17.367598
3 1 1 0.0866 11.626771 13.679918 14.552041
4 1 4 0.0839 18.259271 15.302662 18.661440
5 1 1 0.0277 12.877631 12.188169 16.593173
6 1 2 0.0871 14.264100 15.183312 14.040144
7 1 2 -0.0092 12.697339 20.921458 20.218141
8 1 4 0.2765 17.498876 19.149961 13.738578
9 1 1 -0.0531 17.116344 14.218062 15.651374
10 1 1 0.1829 17.699091 15.478180 15.860154
11 1 1 0.0839 17.063705 16.629366 15.354412
12 1 1 -0.0632 15.801291 16.535522 14.714450
13 1 8 -0.0801 15.055468 17.643761 14.222020
14 1 2 -0.2763 17.602531 17.561684 15.432309
15 1 1 -0.2415 13.862224 16.813532 18.326804
16 1 2 -0.2763 14.686290 16.244732 18.779744
17 1 2 -0.379 15.060452 18.529471 17.742624
18 1 1 0.0872 12.993197 11.760491 15.260206
19 1 4 0.157 11.994759 12.817386 19.167129
20 1 1 0.1829 15.221002 15.271242 14.546826
21 1 1 -0.2763 12.324492 12.482537 14.236009
22 1 2 -0.2763 13.340147 11.608928 17.398218
23 1 1 -0.0632 14.055100 18.104604 17.778857
24 1 2 0.2765 15.409775 13.152204 14.817017
25 1 2 -0.2415 13.066467 19.817515 16.809017
26 1 2 0.0872 17.625074 13.328532 16.007841
27 1 1 -0.0801 12.952510 18.834150 17.269019
28 1 1 0.0077 12.574209 16.248166 18.305097
29 1 2 0.0586 12.353084 12.122416 13.208925
30 1 1 -0.0531 15.884363 14.114931 14.982086
31 1 1 -0.2415 12.246170 13.398320 16.915593
32 1 10 0.0078 12.121116 13.731011 18.380278
33 1 6 -0.043 12.439644 15.006043 19.921478
34 1 11 0.0078 12.358776 14.990923 18.911597
35 1 1 -0.0632 17.568824 11.564133 20.017592
36 1 1 -0.043 11.644247 14.145683 15.885037
37 1 1 -0.0645 11.473877 17.006746 17.865580
38 1 6 0.157 15.430911 18.582646 14.333945
39 1 12 -0.2514 17.710390 20.298794 13.426707
40 1 11 0.0896 17.235390 12.773457 20.723075
41 1 7 -0.2415 17.230180 20.797954 12.259286
42 1 6 0.157 18.910546 19.461373 11.575684
43 1 8 0.0277 19.887549 19.607124 11.850101
44 1 1 -0.2415 20.938750 15.183249 19.695551
45 1 2 -0.0531 18.983950 12.590850 18.737877
46 1 1 0.1829 18.537092 11.638086 19.000443
47 1 2 0.0078 20.138127 14.999865 20.408496
48 1 2 0.0278 20.475009 14.569422 11.970752
49 1 6 -0.0801 18.930494 19.428811 11.593946
50 1 1 0.0839 21.137364 16.187064 13.240649
51 1 1 0.0866 20.631399 15.395248 18.335440
52 1 4 -0.0521 18.411469 20.630143 18.618583
53 1 2 -0.0521 20.825345 18.567922 18.719224
54 1 1 -0.2514 21.690262 15.621492 17.425129
55 1 10 0.0866 19.186298 15.412780 17.874668
56 1 1 -0.0632 18.725532 20.892390 15.666853
57 1 1 0.0839 21.773482 19.056231 18.520135
58 1 11 -0.2763 18.964482 15.543567 16.506633
59 1 2 0.0078 21.438534 15.801104 16.401339
60 1 10 0.2886 19.035367 21.535019 18.094373
61 1 1 -0.0801 20.376396 20.886060 11.530106
62 1 2 -0.2514 21.292781 21.210725 13.430562
63 1 6 0.1829 19.738332 15.878516 15.954156
64 1 1 0.0278 18.413561 21.261575 14.341018
65 1 2 -0.2514 18.859119 19.842727 15.934356
66 1 1 0.0896 21.231188 14.897613 12.680520
67 1 2 0.3852 21.577325 18.746566 16.449886
68 1 1 -0.0632 21.194852 21.599353 12.420752
69 1 2 0.1829 20.318205 16.856374 12.965729
70 1 2 -0.2514 19.545424 20.428387 20.631869
71 1 1 0.1829 20.094887 21.409668 10.262144
72 1 2 -0.0632 19.420001 20.883963 9.596389
73 1 2 -0.0801 25.085781 20.937007 17.765808
74 1 6 0.0866 22.582069 12.566116 11.594104
75 1 1 -0.2514 23.278665 15.639951 19.247378
76 1 11 0.0872 24.286055 21.112800 20.375022
77 1 1 -0.0496 22.257372 15.328956 20.170580
78 1 8 0.0866 24.245390 19.564826 15.751086
79 1 10 -0.0632 24.146035 16.237992 16.955489
80 1 11 0.2266 24.081087 16.202734 15.561515
81 1 1 0.0871 23.105856 15.740927 14.625133
82 1 1 0.0872 23.512506 19.720702 16.958684
83 1 6 0.0872 24.911328 16.566707 15.113932
84 1 2 0.0872 22.132593 19.524019 20.582248
85 1 4 -0.043 25.169672 16.680589 17.450357
86 1 1 -0.2763 22.517978 19.605291 19.569864
87 1 6 -0.0632 23.777424 19.227468 14.920759
88 1 1 0.0896 24.172060 20.398561 18.002455
89 1 2 -0.0531 23.279056 12.843195 19.933287
90 1 2 -0.0645 24.272962 15.827603 19.640100
91 1 1 0.04 23.204531 14.458873 14.041074
92 1 2 0.0866 24.010575 13.797038 14.345728
93 1 2 -0.2763 24.776946 13.539580 16.934422
94 1 1 0.0277 22.480029 12.293331 20.425503
95 1 1 0.0278 23.687112 20.346860 19.322939
96 1 8 0.1829 22.344126 12.692839 12.566998
97 1 1 -0.0531 23.019510 15.778619 17.863579
98 1 2 0.0872 22.039806 17.625510 14.564885
99 1 1 -0.2514 22.242239 19.146039 17.204711
100 1 1 -0.0632 22.100832 16.616275 14.169549
101 1 1 -0.0521 22.278184 14.027388 13.062915
102 1 7 -0.2415 23.795528 21.470139 13.780054
103 1 6 0.157 23.766229 19.225259 14.922050
104 1 6 0.157 22.581557 12.541591 11.585197
105 1 6 0.0078 30.095826 15.232359 16.537834
106 1 1 0.0874 30.086280 13.961188 14.532133
107 1 4 0.0872 27.552832 16.464312 15.144290
108 1 10 0.0078 28.015266 21.176178 18.983437
109 1 1 0.0278 29.689555 17.106892 17.216709
110 1 1 0.0896 29.025401 18.345479 17.109367
111 1 1 0.0866 29.463998 19.448190 17.867395
112 1 11 0.0839 28.666358 20.618781 17.891283
113 1 2 -0.0531 28.161231 18.456409 16.462467
114 1 2 -0.0531 31.279570 16.027034 18.195996
115 1 10 -0.2514 31.771344 12.178111 13.812318
116 1 2 0.2266 25.996312 12.020029 15.604393
117 1 2 0.0078 31.002141 20.201389 19.204436
118 1 4 0.157 25.867745 12.574798 12.064307
119 1 11 -0.0801 28.039702 13.607919 20.242410
120 1 1 -0.0801 27.960379 19.142948 20.511835
121 1 2 0.0078 27.843994 18.507412 19.641339
122 1 1 0.0896 26.479827 12.401683 16.492700
123 1 1 -0.0632 28.133428 20.527172 20.334530
124 1 1 0.0871 31.295647 18.113274 18.757018
125 1 1 0.157 25.764997 13.300420 17.288264
126 1 1 -0.0531 30.631229 19.344035 18.649808
127 1 6 -0.043 28.460050 21.018047 16.982663
128 1 1 0.0866 30.789848 16.991223 18.084249
129 1 2 -0.2763 29.296989 12.166184 18.346026
130 1 12 -0.379 26.996965 12.122363 12.141562
131 1 6 0.2266 28.045341 14.583721 20.532069
132 1 1 0.2765 29.429763 12.341824 12.866084
133 1 1 -0.0483 30.427523 12.872546 13.704387
134 1 1 0.0587 27.782236 13.889474 13.772752
135 1 1 -0.2623 28.772760 14.482121 14.580355
136 1 1 0.0896 26.299885 13.811030 18.489479
137 1 10 -0.0801 28.470958 15.708944 15.419289
138 1 2 0.2266 25.696697 14.473419 19.110579
139 1 2 -0.2514 29.643387 11.446081 12.282770
140 1 2 -0.043 30.843934 14.387509 15.172303
141 1 1 0.2765 28.102465 12.823598 12.904121
142 1 1 0.3852 27.573422 13.374067 18.912168
143 1 2 -0.2763 26.745935 14.213688 13.868262
144 1 11 0.1829 29.406867 15.964061 16.419067
145 1 1 0.1829 28.324494 12.544109 18.045739
146 1 1 0.0839 27.779387 12.028546 16.856780
147 1 4 0.1829 31.808698 13.196123 19.380326
148 1 2 0.0078 32.111567 12.501011 17.196108
149 1 2 0.0896 32.193486 18.022788 19.363437
150 1 6 0.2266 32.414791 13.577699 15.158611
151 1 1 -0.0531 14.534327 16.779145 21.727797
152 1 1 0.2266 14.635152 15.390558 21.509504
153 1 2 -0.0801 13.734063 14.788099 21.418526
154 1 6 0.2266 17.999323 13.447307 20.835808
155 1 10 -0.2763 15.966077 13.250807 21.061677
156 1 4 0.0277 12.133645 16.824923 21.760118
157 1 1 0.0896 12.002189 20.835134 21.046199
158 1 10 0.0871 13.174395 17.458561 21.773992
159 1 1 0.1829 15.884756 14.734072 21.429406
160 1 4 0.2266 14.952053 12.621711 20.817790
161 1 1 -0.0632 15.731248 17.501876 21.919507
162 1 6 -0.0483 14.044571 19.299252 21.581682
163 1 11 -0.2763 13.167994 18.846236 21.801271
164 1 1 0.1829 17.052155 15.477181 21.690388
165 1 2 0.3852 14.922643 12.621244 28.865398
166 1 4 -0.0632 12.817994 15.910245 28.638894
167 1 1 0.2886 16.618119 17.901270 25.101610
168 1 6 0.0872 13.617015 12.488738 23.489655
169 1 1 -0.2514 15.297505 20.383097 24.985344
170 1 2 0.0871 12.268059 13.193875 22.583388
171 1 1 0.0872 16.563006 12.787246 24.837562
172 1 2 0.0866 17.127176 16.946840 25.155870
173 1 1 -0.0632 14.040429 20.855949 31.933076
174 1 2 -0.043 16.740159 13.796613 24.485228
175 1 11 -0.0801 18.193650 18.583151 23.379769
176 1 6 -0.2763 13.316083 12.831969 29.185661
177 1 10 0.0866 13.836769 14.220118 24.582954
178 1 2 -0.0531 15.687779 18.573360 22.059732
179 1 1 0.0277 17.581869 12.044735 25.452234
180 1 10 -0.043 13.388511 14.854375 28.850541
181 1 2 -0.3506 15.156232 17.384884 26.626027
182 1 1 -0.0091 15.500520 18.139605 25.918734
183 1 1 -0.0801 14.821528 19.362437 25.828393
184 1 10 -0.0531 17.826286 17.152648 28.507821
185 1 1 0.0872 14.005148 21.255294 30.583824
186 1 1 0.0866 12.487795 14.691165 24.103088
187 1 11 -0.2415 11.800691 20.214338 30.270388
188 1 1 -0.0507 17.574769 16.128497 32.023147
189 1 1 0.0078 15.535365 13.513929 28.851472
190 1 4 -0.0801 14.436936 14.790322 25.479321
191 1 2 0.0866 13.907228 19.498637 26.393311
192 1 1 0.0866 15.214517 21.588180 29.942814
193 1 4 0.2266 17.303672 18.240674 28.679503
194 1 1 0.0866 16.468744 20.855895 31.897558
195 1 1 -0.0632 17.098994 18.893828 24.238816
196 1 1 0.0872 11.847878 15.737622 24.771437
197 1 1 -0.379 16.387938 15.562626 32.510729
198 1 1 -0.043 15.301012 12.201610 24.642824
199 1 1 -0.0531 17.697366 14.609084 28.766378
200 1 11 -0.0645 14.523573 21.572725 24.880759
201 1 1 0.0896 16.449969 21.354579 30.579820
202 1 1 -0.0632 12.073027 19.741875 21.926687
203 1 2 -0.0632 16.857283 20.931552 23.571084
204 1 1 -0.2514 16.473839 20.160539 24.232257
205 1 11 0.0277 12.727260 13.666263 29.123509
206 1 11 -0.0632 14.234437 12.970778 24.126633
207 1 6 -0.0092 12.013517 19.786617 31.164674
208 1 10 0.0078 17.638958 12.101522 29.014769
209 1 1 -0.2763 16.941611 13.424311 28.874675
210 1 10 -0.0801 12.751956 21.095301 29.760232
211 1 2 0.0587 17.416650 20.645803 32.384474
212 1 1 -0.0507 15.662226 15.928457 28.794342
213 1 1 0.0078 17.063338 15.869870 28.709804
214 1 1 -0.0092 14.888147 14.759579 28.833560
215 1 2 0.0896 15.161968 16.890451 28.760936
216 1 2 -0.2623 12.416328 16.248557 25.533815
217 1 4 0.0866 14.702440 12.052257 31.582266
218 1 10 0.0078 18.246140 17.604724 22.375668
219 1 4 0.1829 12.714988 21.487865 28.604912
220 1 1 0.0866 16.986396 16.858840 21.984537
221 1 2 0.0873 12.067151 18.681551 28.073025
222 1 12 -0.0632 17.746068 21.505780 29.839581
223 1 1 0.2765 11.778296 14.000163 23.111219
224 1 2 -0.0507 17.618382 17.194149 31.817971
225 1 1 0.0866 11.336754 13.404694 29.234673
226 1 2 -0.2763 17.994985 14.919335 21.694055
227 1 10 -0.2763 14.362584 12.576358 32.630227
228 1 1 0.2266 16.303705 14.171561 32.701612
229 1 1 0.0078 13.081735 12.181691 33.321665
230 1 10 -0.2623 15.222628 19.952372 33.932032
231 1 2 0.0839 13.395503 17.799398 34.010739
232 1 6 0.0278 16.448510 18.420757 33.280681
233 1 1 0.2266 15.264868 20.604187 32.578091
234 1 11 0.0872 15.851513 18.715926 34.045375
235 1 11 0.0872 15.087668 13.618047 33.186120
236 1 4 0.0839 12.428852 15.753738 32.797745
237 1 1 -0.043 12.118589 11.454911 32.598356
238 1 6 0.0586 14.648953 14.129653 33.938321
239 1 2 0.0895 17.370017 12.290717 32.635136
240 1 10 -0.2514 11.702712 15.639100 33.773930
241 1 1 -0.0632 17.427187 13.361795 32.455002
242 1 2 0.0866 13.113218 20.610600 32.440858
243 1 2 0.0278 15.512997 16.183718 32.657806
244 1 6 0.1829 13.934057 21.718906 25.678739
245 1 2 0.2765 11.713301 11.315357 28.947328
246 1 4 0.0872 23.680093 21.222402 34.495515
247 1 1 -0.0632 20.071296 21.294561 20.982252
248 1 1 0.2266 21.873127 12.796119 21.590965
249 1 2 0.0078 21.100039 15.846088 25.139961
250 1 2 0.0896 18.781198 14.541078 28.744124
251 1 1 0.0078 19.461536 19.165029 26.741989
252 1 2 -0.379 21.341555 21.565595 31.254799
253 1 1 0.2266 19.927803 17.983439 27.353915
254 1 1 0.2266 21.555131 19.334852 25.519524
255 1 4 -0.2514 18.838642 12.003650 28.840121
256 1 10 0.2266 20.874760 13.165042 30.998764
257 1 11 0.0866 19.065851 17.006976 27.910620
258 1 6 0.0866 19.371957 16.058863 27.728967
259 1 10 -0.0632 19.433346 13.752189 25.585723
260 1 2 -0.2514 21.085431 11.758894 26.620199
261 1 6 -0.0632 19.579318 11.709238 25.654894
262 1 1 -0.2514 18.688003 15.312896 31.754908
263 1 4 -0.0802 18.767887 20.948107 30.194776
264 1 11 -0.2514 18.920175 12.468476 25.529525
265 1 4 0.2266 21.120358 14.139086 30.311082
266 1 1 -0.0531 20.906682 13.815378 25.859097
267 1 6 -0.2514 19.082383 18.979422 23.683357
268 1 4 -0.0521 18.754377 14.760128 25.482545
269 1 2 0.0278 19.570311 15.771336 31.330103
270 1 2 -0.0521 18.442112 19.509768 26.888706
271 1 2 0.04 20.432230 12.421879 23.163052
272 1 1 0.0277 18.627843 13.917838 31.976332
273 1 1 0.2266 20.884961 12.040317 22.250900
274 1 1 0.2886 21.406985 20.529129 31.574267
275 1 2 -0.0632 19.936384 20.768010 25.369499
276 1 2 -0.2514 21.619996 16.724732 27.753439
277 1 1 -0.2763 21.265790 17.591739 27.196529
278 1 11 0.0586 19.732504 13.030793 31.784861
279 1 1 -0.0632 20.294965 19.862192 25.852981
280 1 1 0.0078 21.586338 12.700923 26.397775
281 1 1 0.0866 20.432384 21.326470 22.330780
282 1 1 -0.0632 21.617428 15.009056 25.601512
283 1 6 -0.0496 19.670752 12.186041 32.339129
284 1 2 0.1829 20.149193 20.482471 22.959911
285 1 1 0.1829 21.583496 17.843422 32.396012
286 1 4 -0.2763 19.322209 17.255061 21.918475
287 1 11 0.2765 21.509155 16.508605 32.864020
288 1 6 0.1829 20.613621 16.260160 33.265865
289 1 11 -0.2514 20.433077 21.147015 33.725029
290 1 2 -0.0801 20.158522 14.899994 34.376188
291 1 2 -0.0521 20.758547 18.516977 34.261422
292 1 1 -0.0801 21.080060 18.819637 33.267626
293 1 1 0.0078 20.972805 20.160314 32.861323
294 1 10 -0.0632 22.591378 15.180905 21.644005
295 1 10 -0.2514 24.581846 20.649727 21.665163
296 1 11 -0.2623 22.438102 13.921217 22.221406
297 1 2 0.3852 24.525004 13.169089 23.297107
298 1 2 0.0078 25.034910 20.177576 24.339557
299 1 10 0.1829 24.334888 21.592625 26.664646
300 1 10 0.0866 25.269853 15.639144 29.492389
301 1 6 -0.2514 23.922903 18.390135 25.432042
302 1 1 0.0277 22.032402 18.173699 26.159654
303 1 1 -0.0521 25.155434 18.103207 29.956523
304 1 1 0.0278 25.078581 18.613855 28.645363
305 1 1 -0.2623 25.213357 19.990511 28.398882
306 1 11 -0.2514 24.799388 16.753788 30.178752
307 1 2 0.0866 24.845906 17.942683 27.825573
308 1 1 -0.0531 22.005887 18.208856 31.097804
309 1 6 -0.2514 22.914703 13.711204 23.104104
310 1 1 0.0866 22.988327 15.120172 25.918830
311 1 4 0.0078 24.825562 11.727851 27.651778
312 1 1 -0.2763 24.795096 21.217460 24.145419
313 1 10 0.1829 23.699797 11.588756 27.212341
314 1 11 -0.2763 25.091660 20.496744 27.065669
315 1 10 0.0277 23.817595 16.363328 25.662734
316 1 2 -0.2623 23.526058 13.343501 31.326453
317 1 6 -0.2763 23.868741 16.665660 30.598587
318 1 1 0.0871 23.231404 12.304921 31.228808
319 1 2 -0.2763 24.723767 13.960127 26.589784
320 1 4 -0.043 24.519217 14.688074 29.361554
321 1 1 0.0872 23.645995 13.970658 26.412744
322 1 2 0.0839 22.168836 19.851803 29.678884
323 1 4 -0.2514 25.016658 16.242572 25.455238
324 1 1 0.0866 22.954873 12.774361 26.664465
325 1 11 0.0871 23.281301 17.654861 25.712540
326 1 1 -0.2763 24.654472 21.651801 22.801513
327 1 4 -0.0801 23.148976 16.076679 22.254455
328 1 2 0.0078 22.160945 19.833520 24.767874
329 1 4 -0.0632 24.586227 19.454843 21.907636
330 1 2 0.2886 22.426856 17.475835 30.400945
331 1 1 0.2266 21.892242 19.552529 30.686080
332 1 1 0.0866 21.855711 12.033569 31.083715
333 1 4 -0.0507 23.693840 15.911102 32.798765
334 1 2 0.1829 24.275539 13.757999 33.871060
335 1 10 0.0866 22.562564 15.679380 33.185348
336 1 1 0.0872 23.274486 13.544481 34.247574
337 1 1 -0.2415 22.248676 14.479046 34.048244
338 1 1 -0.0632 24.172590 11.251877 31.339737
339 1 1 -0.043 25.389707 18.969837 31.042626
340 1 1 -0.2514 28.231495 21.355174 21.463695
341 1 1 -0.2763 27.827175 18.584329 21.797386
342 1 2 0.2266 32.066909 14.669926 21.633672
343 1 10 -0.0632 28.559071 12.713738 21.188780
344 1 4 0.1829 27.420557 16.426822 20.925246
345 1 6 0.2266 25.470405 19.926490 26.319889
346 1 1 0.2266 32.127708 17.595035 31.824204
347 1 1 0.0872 27.194742 15.250606 23.571316
348 1 1 0.0871 27.710614 16.508228 29.228192
349 1 11 0.0871 27.882575 21.225313 25.186207
350 1 1 -0.0531 27.046320 14.425280 28.207845
351 1 1 0.0839 30.195054 13.839816 32.061693
352 1 2 -0.2514 27.576794 17.348938 29.889069
353 1 1 0.0278 27.734080 19.466663 22.901629
354 1 1 -0.043 29.344062 15.159350 28.022011
355 1 6 -0.379 31.330734 15.773507 22.808383
356 1 2 0.0078 31.122257 17.799146 32.170601
357 1 6 0.3852 27.407022 20.336254 25.128120
358 1 1 -0.2514 27.823871 14.249181 32.239939
359 1 1 -0.2763 31.151744 20.304495 24.303317
360 1 1 -0.0632 27.528748 13.304975 25.014270
361 1 10 0.0871 28.731474 12.867483 27.193002
362 1 1 -0.0801 28.633364 12.299268 31.041969
363 1 1 -0.2514 27.571575 13.069451 31.519292
364 1 11 -0.2763 31.074083 11.798628 31.106585
365 1 2 -0.2763 25.432318 18.605352 32.072750
366 1 1 0.0279 25.540759 13.460755 23.595491
367 1 1 -0.0531 31.499206 19.496107 25.400641
368 1 1 0.0277 28.354063 14.205566 27.748838
369 1 6 -0.2763 25.677447 13.361703 30.795213
370 1 6 0.0586 27.733193 17.207706 23.963492
371 1 2 0.157 26.309862 13.647304 28.073924
372 1 10 -0.379 27.654445 17.090767 21.915486
373 1 1 -0.0632 26.041881 14.643262 23.043608
374 1 6 -0.0092 31.149332 20.898500 26.902015
375 1 1 0.2266 28.667959 20.956244 27.521054
376 1 2 0.0078 25.636865 21.022549 31.642783
377 1 11 -0.2514 26.239033 12.672831 31.257930
378 1 4 0.0866 29.233287 12.027920 27.917201
379 1 6 -0.0531 31.952831 12.301495 31.090847
380 1 11 -0.379 31.740220 16.133859 23.662583
381 1 2 0.0078 30.372106 14.982312 27.714857
382 1 2 0.2266 28.964861 19.940032 27.320525
383 1 1 0.0839 27.917997 14.590885 24.578152
384 1 1 0.3852 31.662468 18.107704 25.195904
385 1 6 0.1829 31.042447 15.352672 29.933804
386 1 1 0.3852 31.003291 19.748096 23.014059
387 1 2 -0.2763 29.282612 20.784684 29.589682
388 1 1 -0.0632 31.204267 18.367601 22.831347
389 1 2 0.0895 28.805853 15.067806 24.978387
390 1 2 0.0078 27.489431 19.063848 23.878236
391 1 4 -0.2514 29.091000 13.161687 22.184562
392 1 11 -0.0632 27.570643 16.568351 23.196489
393 1 1 0.0277 27.997830 20.853291 22.758321
394 1 1 0.2886 31.544730 17.536631 23.911609
395 1 10 -0.0531 25.646877 11.469302 31.606343
396 1 1 0.0866 26.685170 15.577078 28.938174
397 1 2 0.0873 31.997909 13.391304 27.352886
398 1 1 0.2266 29.029012 16.282837 28.806824
399 1 1 -0.0801 25.422045 20.852563 29.492398
400 1 2 0.0866 31.884700 17.474567 26.045823
401 1 1 0.0866 25.505052 20.346836 30.802913
402 1 2 -0.0507 25.469627 15.128411 22.266643
403 1 1 -0.3506 28.836995 21.433840 28.832962
404 1 11 -0.2415 28.332139 12.540682 25.905516
405 1 2 0.0896 25.990213 11.793126 24.918504
406 1 1 0.2266 32.285677 16.843184 30.647221
407 1 11 -0.2514 31.162083 16.357520 29.941590
408 1 10 0.0078 30.137897 17.111025 29.382812
409 1 11 -0.0483 31.729129 20.098512 26.676003
410 1 4 0.0871 30.054568 18.324419 29.491315
411 1 1 -0.0645 26.325399 12.749628 24.531974
412 1 1 0.0871 29.958032 12.646855 31.358806
413 1 2 0.0839 31.006893 21.375126 24.437258
414 1 2 0.0872 30.746590 20.381967 22.167456
415 1 2 0.0866 31.093733 17.932906 21.844898
416 1 10 0.0866 28.151143 21.784079 23.948685
417 1 1 -0.0521 28.134064 21.764701 26.492890
418 1 2 0.0839 28.384217 11.428306 30.458872
419 1 6 0.0839 28.524145 11.595648 25.599240
420 1 1 -0.0531 32.432914 13.784509 22.165227
421 1 2 0.1829 31.206596 14.127045 32.304822
422 1 2 -0.0632 29.359914 15.546737 33.067084
423 1 1 0.2266 29.138517 14.643024 32.505759
424 1 4 -0.2415 31.001587 19.554402 33.737452
425 1 10 0.157 32.120817 19.586004 34.206540
426 1 2 0.0872 26.995610 14.865554 32.589262
427 1 2 0.0839 17.240357 17.222521 35.869751
428 1 6 -0.0444 14.739996 19.616972 37.849716
429 1 1 -0.0483 11.591446 12.164800 35.281095
430 1 4 0.0078 14.447142 19.894021 40.963726
431 1 1 0.0866 15.641257 15.936697 36.584990
432 1 2 0.2266 18.110861 12.447347 38.669380
433 1 1 -0.043 17.256472 19.573511 38.099871
434 1 1 0.0866 16.371025 20.392435 38.809612
435 1 2 -0.2514 16.931518 21.727631 35.413147
436 1 2 -0.0521 12.581408 19.737523 37.598917
437 1 2 -0.0507 16.897377 18.657940 37.643260
438 1 1 0.0078 16.007172 14.014012 42.851882
439 1 1 -0.0632 12.821370 12.501273 34.672849
440 1 11 0.157 15.002891 20.007250 38.749620
441 1 2 0.0401 12.101386 12.708996 42.008151
442 1 2 0.2765 16.279862 15.424381 37.314452
443 1 1 -0.0521 12.799026 17.539641 40.192978
444 1 10 0.0278 14.176403 19.641939 39.801839
445 1 1 0.0896 11.345866 17.969793 37.815083
446 1 2 0.0871 13.586681 12.991994 35.260583
447 1 1 0.0896 15.363704 17.664847 34.877475
448 1 4 -0.0531 11.835978 13.522648 37.242482
449 1 1 0.2266 13.492030 16.181155 35.438846
450 1 2 0.1829 17.144983 18.563112 42.001898
451 1 2 0.1829 13.358199 17.354359 41.110580
452 1 6 -0.043 17.404661 13.175040 36.139822
453 1 1 0.0896 12.349476 18.876576 38.220590
454 1 2 0.2765 13.889029 14.743091 37.042322
455 1 2 0.0871 16.546626 14.283128 41.950923
456 1 1 0.2266 13.070401 18.684582 39.417337
457 1 1 0.04 11.823309 16.597975 39.795613
458 1 1 0.0839 14.020745 17.277423 34.733318
459 1 12 0.0896 11.300979 12.568850 36.708935
460 1 1 0.0839 16.187621 16.960623 35.778295
461 1 2 -0.0632 14.098180 14.221770 41.910423
462 1 11 0.1829 12.187376 15.725339 35.080603
463 1 1 0.0866 14.287806 15.554573 36.428549
464 1 4 0.2765 14.419094 20.341939 34.757782
465 1 1 -0.043 14.610378 13.974303 42.834406
466 1 4 -0.2514 11.989380 15.430654 41.833627
467 1 2 -0.0801 12.866236 11.433751 38.736550
468 1 6 -0.0531 11.536514 15.599003 35.845196
469 1 1 -0.0521 18.105225 18.683483 42.490333
470 1 1 0.0872 16.848380 21.585413 39.403960
471 1 10 0.0872 11.550832 15.418677 40.700888
472 1 2 -0.0531 12.814985 13.650026 43.982551
473 1 1 0.0839 14.442084 17.217095 44.214556
474 1 1 -0.2514 16.711079 13.743162 44.030969
475 1 1 0.0077 14.511656 20.862303 45.311476
476 1 11 -0.0444 14.370416 15.726849 47.583286
477 1 6 -0.0531 16.350016 20.129840 43.856130
478 1 7 0.2266 17.996302 12.286872 48.241720
479 1 4 0.0872 17.201536 18.711925 46.551680
480 1 2 0.0278 14.714895 20.819280 44.246969
481 1 1 0.0278 13.073880 21.571506 47.130680
482 1 2 0.0839 15.738836 15.947121 45.387178
483 1 4 -0.0521 15.256938 11.579562 47.474360
484 1 10 0.0866 14.166647 12.115261 47.405480
485 1 1 -0.0801 13.253307 17.958560 44.215650
486 1 1 -0.2763 18.147699 19.124499 43.827205
487 1 6 -0.2763 11.854682 19.940419 45.642316
488 1 1 -0.2514 15.998710 13.342029 45.181849
489 1 1 -0.0531 14.581111 13.265327 45.172434
490 1 2 -0.0531 16.550495 13.111493 46.082497
491 1 11 -0.0091 11.474296 19.030762 45.420515
492 1 9 -0.2514 17.299531 12.878476 47.918426
493 1 2 0.0866 11.409868 12.513867 47.406829
494 1 1 -0.0521 14.986933 20.158515 47.591610
495 1 1 -0.0507 13.855496 20.855733 48.049689
496 1 1 0.1829 13.897825 13.628700 43.997615
497 1 6 -0.0483 14.760890 14.825029 47.339720
498 1 11 0.0872 16.953661 19.577742 44.453787
499 1 1 0.0895 15.327103 20.150488 46.222775
500 1 11 -0.0531 18.127177 13.880098 43.982547
501 1 1 -0.2763 13.403902 21.606635 45.764387
502 1 2 0.0078 12.201974 17.352683 47.398686
503 1 11 0.0839 13.796543 12.898497 46.316689
504 1 6 0.0871 12.850383 13.265242 46.330212
505 1 1 -0.0632 14.813780 16.512976 45.363984
506 1 1 0.0896 12.464917 18.031353 45.366182
507 1 1 0.1829 13.987018 16.522084 46.492846
508 1 10 0.1829 16.560069 19.401838 45.776048
509 1 1 -0.2763 12.822857 17.300968 46.506809
510 1 2 0.0078 15.091231 17.211691 43.345065
511 1 2 0.2266 12.951398 18.554442 43.371496
512 1 2 0.04 16.364082 14.226356 48.167609
513 1 2 0.0866 13.656847 11.252581 41.097803
514 1 2 0.0278 21.450382 18.326612 41.910910
515 1 11 0.0871 20.489061 17.214286 38.433110
516 1 1 -0.0521 19.562128 15.367035 39.697300
517 1 10 -0.0632 19.428097 21.002049 34.668203
518 1 11 -0.0632 18.394629 13.390772 36.154578
519 1 1 0.1829 20.640941 12.934667 35.120190
520 1 1 0.04 18.584407 19.959001 37.919321
521 1 4 0.0872 18.772773 19.981565 34.784244
522 1 2 -0.2514 19.224003 19.349758 37.299233
523 1 2 0.2266 20.087503 21.422987 38.257423
524 1 1 -0.0632 18.917334 14.125950 39.764366
525 1 1 0.0871 18.570141 13.435854 38.592410
526 1 10 -0.2623 19.198162 12.559504 35.387578
527 1 1 0.04 18.807172 14.042201 37.340541
528 1 1 -0.0531 19.395181 15.317105 37.277689
529 1 1 0.0278 19.820816 15.963454 38.454708
530 1 2 -0.2514 20.462582 13.361331 42.813636
531 1 2 0.2886 19.292417 18.059579 40.760384
532 1 2 0.0278 19.868496 15.857621 40.616060
533 1 1 0.0078 19.297500 18.401473 41.793950
534 1 2 -0.0531 19.524157 15.795609 36.312945
535 1 2 -0.2514 18.700107 13.699048 40.731402
536 1 10 0.0872 21.418832 17.649640 37.494430
537 1 1 -0.0531 19.060315 21.149962 38.478115
538 1 6 -0.2763 20.276098 17.819815 39.224426
539 1 1 -0.2514 20.530814 18.553883 42.439022
540 1 1 0.3852 20.956076 14.182469 34.548254
541 1 4 -0.0801 18.726144 11.553217 34.889864
542 1 1 0.0587 21.670773 11.978990 35.190135
543 1 4 0.0078 21.722243 16.992366 36.511138
544 1 2 0.0278 21.829046 18.975796 39.880347
545 1 2 -0.2763 20.465112 16.501703 45.799368
546 1 1 -0.043 20.314487 14.841141 44.404876
547 1 4 0.0871 18.628760 14.634536 46.087530
548 1 1 -0.0632 20.579000 18.931662 43.793052
549 1 2 0.04 19.448654 19.481581 45.534735
550 1 1 -0.0531 21.708974 19.702953 48.115140
551 1 10 -0.2763 18.989202 14.371887 44.951664
552 1 11 0.0866 21.806206 18.970733 44.501673
553 1 1 0.2765 19.391966 19.192140 44.490791
554 1 1 -0.043 20.923189 15.983690 44.958835
555 1 2 0.0866 21.064242 19.462485 47.278094
556 1 4 0.0278 20.486653 11.311819 44.210273
557 1 4 0.0866 19.083772 21.139901 47.717706
558 1 1 0.1829 20.898773 14.246590 43.262109
559 1 7 0.0839 20.329146 11.500123 46.415070
560 1 6 0.2266 18.518562 13.825455 43.048694
561 1 1 0.0866 22.155997 19.552387 39.024456
562 1 10 -0.0632 22.550630 14.218383 41.340309
563 1 2 -0.2623 24.724841 18.634490 38.773222
564 1 6 -0.0483 23.714578 15.887819 41.036390
565 1 1 0.0872 23.062320 21.008321 36.799197
566 1 6 -0.0507 25.363091 12.237439 42.090965
567 1 11 0.0078 24.920667 12.225990 43.003337
568 1 6 0.0896 24.440704 16.374758 35.414251
569 1 1 0.157 24.762757 13.457855 39.220726
570 1 1 -0.0645 24.088831 14.680831 39.407555
571 1 1 0.1829 24.130973 15.651133 38.396875
572 1 1 0.0277 24.844048 15.418278 37.208817
573 1 11 -0.2514 24.981526 16.468548 36.267001
574 1 2 -0.0632 23.435783 16.438934 42.715355
575 1 2 0.0866 23.653869 16.613267 38.556020
576 1 1 0.1829 22.518783 19.726869 36.637911
577 1 4 -0.043 22.236227 20.893406 41.544599
578 1 2 0.0839 24.776996 12.709329 40.006741
579 1 4 -0.2623 24.553897 18.236596 41.431872
580 1 1 -0.2514 22.033805 19.000280 37.734042
581 1 1 0.1829 23.152064 21.558839 38.091003
582 1 1 -0.0531 22.727141 20.827950 39.219400
583 1 11 0.3852 23.435581 15.006984 40.624054
584 1 7 0.157 25.289604 11.678844 34.883872
585 1 10 0.0078 22.861264 21.378988 40.618837
586 1 2 0.0078 22.449870 19.299530 35.643924
587 1 1 -0.2763 22.980658 12.280883 34.780916
588 1 4 -0.0531 22.148972 13.153343 40.903287
589 1 12 0.0866 23.542686 21.748363 35.586989
590 1 1 -0.0531 22.022131 14.810304 42.628871
591 1 6 -0.2415 24.058703 14.296790 47.412321
592 1 1 0.2266 22.589228 15.965790 43.195134
593 1 1 -0.0496 25.181552 13.406475 43.753961
594 1 2 0.04 24.483139 12.730099 45.707915
595 1 1 0.0873 24.926498 13.539881 45.134197
596 1 2 -0.2763 24.123450 21.320308 43.205046
597 1 10 -0.2623 22.581126 17.868608 44.822294
598 1 1 -0.2763 22.056222 16.548430 44.350336
599 1 4 0.0277 23.505233 17.944988 45.611081
600 1 1 -0.0521 25.228420 14.746321 45.789085
601 1 11 -0.043 24.831079 14.879545 47.135532
602 1 6 0.0896 22.021790 19.841354 44.972495
603 1 4 -0.0507 29.096813 21.697962 46.709892
604 1 1 0.0278 32.460981 12.721780 42.687563
605 1 1 -0.2763 25.469131 13.213074 38.029414
606 1 1 -0.043 25.484317 14.179310 37.010915
607 1 2 0.0866 30.945059 13.124038 39.659742
608 1 7 0.0839 30.479373 17.148565 40.345632
609 1 1 -0.0632 31.397103 20.117268 36.554261
610 1 4 -0.2514 30.580568 16.992556 38.111228
611 1 1 0.1829 31.678824 20.566796 37.864990
612 1 11 0.157 26.072988 19.637081 42.322870
613 1 2 0.0871 28.735967 13.869366 35.802680
614 1 2 0.2266 28.306137 18.312237 41.140274
615 1 2 -0.2514 26.029814 13.966766 36.095299
616 1 1 0.0078 28.486495 11.590886 42.272239
617 1 1 0.0866 32.102878 12.003199 36.233677
618 1 1 -0.0521 27.796818 18.201411 40.183828
619 1 1 -0.0632 32.098411 13.404310 36.203309
620 1 1 0.157 26.991704 20.711268 42.306039
621 1 6 0.1829 27.382536 11.980078 39.571601
622 1 1 -0.0632 26.416897 17.821761 37.748945
623 1 1 0.0839 28.611070 12.446593 41.161246
624 1 10 -0.2763 25.688437 17.647601 36.449231
625 1 1 0.0278 25.773037 18.390715 38.853761
626 1 1 -0.3506 29.687184 13.344757 35.904839
627 1 1 -0.0531 31.413405 12.141042 39.632520
628 1 1 0.0078 27.418754 21.796042 35.685611
629 1 1 -0.0531 30.869007 14.078786 36.096083
630 1 2 -0.3506 26.801917 21.213037 40.189568
631 1 2 -0.3506 28.822458 11.354503 35.690716
632 1 12 -0.2763 29.933516 17.262222 39.110055
633 1 1 0.0587 29.714785 11.944682 35.857951
634 1 1 0.0839 28.866051 13.815784 41.361273
635 1 2 0.2266 25.898391 14.440766 41.992263
636 1 1 0.0896 28.472083 17.648001 39.065068
637 1 1 0.0871 27.752515 21.151374 36.888067
638 1 1 0.0078 28.926500 14.339470 42.663341
639 1 1 0.0866 27.198679 21.515175 41.160098
640 1 2 -0.2763 29.003101 14.469715 40.509009
641 1 1 0.2765 27.763335 17.462702 37.857454
642 1 1 0.0872 26.433756 18.566481 40.081106
643 1 4 0.0871 25.653481 18.542028 35.621628
644 1 1 0.3852 28.851092 21.594281 37.642423
645 1 2 0.2266 28.251736 17.034863 36.990872
646 1 11 0.0866 29.341956 20.845307 38.741497
647 1 2 -0.2763 27.232462 20.245668 37.170157