LAMMPS data file via write_data, version 29 Oct 2020, timestep = 274

6770 atoms
14 atom types
7195 bonds
18 bond types
11128 angles
23 angle types
19477 dihedrals
42 dihedral types

11.246593 53.753407 xlo xhi
11.246593 53.753407 ylo yhi
6.96606 62.059614 zlo zhi

Masses

1 12.01
2 1.008
3 12.01
4 16
5 14.01
6 1.008
7 16
8 14.01
9 1.008
10 12.01
11 14.01
12 12.01
13 1.008
14 16

Pair Coeffs # lj/cut/coul/long/omp

1 0.086 3.39967
2 0.015 2.59964
3 0.086 3.39967
4 0.21 2.95992
5 0.17 3.25
6 0.0157 1.06908
7 0.2104 3.06647
8 0.17 3.25
9 0 0
10 0.086 3.39967
11 0.17 3.25
12 0.086 3.39967
13 0.0157 1.06908
14 0.2104 3.06647

Atoms # full

2226 1 6 -0.0531 15.441986 18.568102 14.340780
2456 1 1 -0.2415 11.657221 18.307114 17.367598
5389 1 1 0.0866 11.626771 13.679918 14.552041
6315 1 4 0.0839 18.259271 15.302662 18.661440
5388 1 1 0.0277 12.877631 12.188169 16.593173
2221 1 2 0.0871 14.264100 15.183312 14.040144
49 1 2 -0.0092 12.697339 20.921458 20.218141
5190 1 4 0.2765 17.498876 19.149961 13.738578
2213 1 1 -0.0531 17.116344 14.218062 15.651374
2216 1 1 0.1829 17.699091 15.478180 15.860154
2217 1 1 0.0839 17.063705 16.629366 15.354412
2218 1 1 -0.0632 15.801291 16.535522 14.714450
2222 1 8 -0.0801 15.055468 17.643761 14.222020
2224 1 2 -0.2763 17.602531 17.561684 15.432309
2451 1 1 -0.2415 13.862224 16.813532 18.326804
2457 1 2 -0.2763 14.686290 16.244732 18.779744
2458 1 2 -0.379 15.060452 18.529471 17.742624
5387 1 1 0.0872 12.993197 11.760491 15.260206
5400 1 4 0.157 11.994759 12.817386 19.167129
2215 1 1 0.1829 15.221002 15.271242 14.546826
5386 1 1 -0.2763 12.324492 12.482537 14.236009
5393 1 2 -0.2763 13.340147 11.608928 17.398218
2452 1 1 -0.0632 14.055100 18.104604 17.778857
2220 1 2 0.2765 15.409775 13.152204 14.817017
2459 1 2 -0.2415 13.066467 19.817515 16.809017
2219 1 2 0.0872 17.625074 13.328532 16.007841
2453 1 1 -0.0801 12.952510 18.834150 17.269019
2454 1 1 0.0077 12.574209 16.248166 18.305097
5392 1 2 0.0586 12.353084 12.122416 13.208925
2214 1 1 -0.0531 15.884363 14.114931 14.982086
5391 1 1 -0.2415 12.246170 13.398320 16.915593
5396 1 10 0.0078 12.121116 13.731011 18.380278
2463 1 6 -0.043 12.439644 15.006043 19.921478
2461 1 11 0.0078 12.358776 14.990923 18.911597
284 1 1 -0.0632 17.568824 11.564133 20.017592
5390 1 1 -0.043 11.644247 14.145683 15.885037
2455 1 1 -0.0645 11.473877 17.006746 17.865580
6641 1 6 0.157 15.430911 18.582646 14.333945
5186 1 12 -0.2514 17.710390 20.298794 13.426707
291 1 11 0.0896 17.235390 12.773457 20.723075
6656 1 7 -0.2415 17.230180 20.797954 12.259286
6655 1 6 0.157 18.910546 19.461373 11.575684
137 1 8 0.0277 19.887549 19.607124 11.850101
6305 1 1 -0.2415 20.938750 15.183249 19.695551
287 1 2 -0.0531 18.983950 12.590850 18.737877
281 1 1 0.1829 18.537092 11.638086 19.000443
6309 1 2 0.0078 20.138127 14.999865 20.408496
1407 1 2 0.0278 20.475009 14.569422 11.970752
139 1 6 -0.0801 18.930494 19.428811 11.593946
1402 1 1 0.0839 21.137364 16.187064 13.240649
6306 1 1 0.0866 20.631399 15.395248 18.335440
5189 1 4 -0.0521 18.411469 20.630143 18.618583
512 1 2 -0.0521 20.825345 18.567922 18.719224
6303 1 1 -0.2514 21.690262 15.621492 17.425129
6311 1 10 0.0866 19.186298 15.412780 17.874668
5180 1 1 -0.0632 18.725532 20.892390 15.666853
506 1 1 0.0839 21.773482 19.056231 18.520135
2223 1 11 -0.2763 18.964482 15.543567 16.506633
6308 1 2 0.0078 21.438534 15.801104 16.401339
5185 1 10 0.2886 19.035367 21.535019 18.094373
130 1 1 -0.0801 20.376396 20.886060 11.530106
138 1 2 -0.2514 21.292781 21.210725 13.430562
2225 1 6 0.1829 19.738332 15.878516 15.954156
5181 1 1 0.0278 18.413561 21.261575 14.341018
5184 1 2 -0.2514 18.859119 19.842727 15.934356
1401 1 1 0.0896 21.231188 14.897613 12.680520
511 1 2 0.3852 21.577325 18.746566 16.449886
131 1 1 -0.0632 21.194852 21.599353 12.420752
1408 1 2 0.1829 20.318205 16.856374 12.965729
1379 1 2 -0.2514 19.545424 20.428387 20.631869
127 1 1 0.1829 20.094887 21.409668 10.262144
133 1 2 -0.0632 19.420001 20.883963 9.596389
516 1 2 -0.0801 25.085781 20.937007 17.765808
1413 1 6 0.0866 22.582069 12.566116 11.594104
6301 1 1 -0.2514 23.278665 15.639951 19.247378
514 1 11 0.0872 24.286055 21.112800 20.375022
6304 1 1 -0.0496 22.257372 15.328956 20.170580
515 1 8 0.0866 24.245390 19.564826 15.751086
6312 1 10 -0.0632 24.146035 16.237992 16.955489
1410 1 11 0.2266 24.081087 16.202734 15.561515
1406 1 1 0.0871 23.105856 15.740927 14.625133
508 1 1 0.0872 23.512506 19.720702 16.958684
1414 1 6 0.0872 24.911328 16.566707 15.113932
513 1 2 0.0872 22.132593 19.524019 20.582248
6313 1 4 -0.043 25.169672 16.680589 17.450357
507 1 1 -0.2763 22.517978 19.605291 19.569864
517 1 6 -0.0632 23.777424 19.227468 14.920759
509 1 1 0.0896 24.172060 20.398561 18.002455
1493 1 2 -0.0531 23.279056 12.843195 19.933287
6307 1 2 -0.0645 24.272962 15.827603 19.640100
1405 1 1 0.04 23.204531 14.458873 14.041074
1412 1 2 0.0866 24.010575 13.797038 14.345728
2514 1 2 -0.2763 24.776946 13.539580 16.934422
1487 1 1 0.0277 22.480029 12.293331 20.425503
510 1 1 0.0278 23.687112 20.346860 19.322939
1411 1 8 0.1829 22.344126 12.692839 12.566998
6302 1 1 -0.0531 23.019510 15.778619 17.863579
1409 1 2 0.0872 22.039806 17.625510 14.564885
505 1 1 -0.2514 22.242239 19.146039 17.204711
1403 1 1 -0.0632 22.100832 16.616275 14.169549
1404 1 1 -0.0521 22.278184 14.027388 13.062915
6658 1 7 -0.2415 23.795528 21.470139 13.780054
6647 1 6 0.157 23.766229 19.225259 14.922050
6697 1 6 0.157 22.581557 12.541591 11.585197
713 1 6 0.0078 30.095826 15.232359 16.537834
4551 1 1 0.0874 30.086280 13.961188 14.532133
4560 1 4 0.0872 27.552832 16.464312 15.144290
5921 1 10 0.0078 28.015266 21.176178 18.983437
704 1 1 0.0278 29.689555 17.106892 17.216709
705 1 1 0.0896 29.025401 18.345479 17.109367
706 1 1 0.0866 29.463998 19.448190 17.867395
710 1 11 0.0839 28.666358 20.618781 17.891283
712 1 2 -0.0531 28.161231 18.456409 16.462467
707 1 2 -0.0531 31.279570 16.027034 18.195996
4557 1 10 -0.2514 31.771344 12.178111 13.812318
2515 1 2 0.2266 25.996312 12.020029 15.604393
709 1 2 0.0078 31.002141 20.201389 19.204436
4559 1 4 0.157 25.867745 12.574798 12.064307
2517 1 11 -0.0801 28.039702 13.607919 20.242410
5915 1 1 -0.0801 27.960379 19.142948 20.511835
5919 1 2 0.0078 27.843994 18.507412 19.641339
2509 1 1 0.0896 26.479827 12.401683 16.492700
5916 1 1 -0.0632 28.133428 20.527172 20.334530
702 1 1 0.0871 31.295647 18.113274 18.757018
2508 1 1 0.157 25.764997 13.300420 17.288264
703 1 1 -0.0531 30.631229 19.344035 18.649808
714 1 6 -0.043 28.460050 21.018047 16.982663
701 1 1 0.0866 30.789848 16.991223 18.084249
2518 1 2 -0.2763 29.296989 12.166184 18.346026
4558 1 12 -0.379 26.996965 12.122363 12.141562
2519 1 6 0.2266 28.045341 14.583721 20.532069
4549 1 1 0.2765 29.429763 12.341824 12.866084
4552 1 1 -0.0483 30.427523 12.872546 13.704387
4547 1 1 0.0587 27.782236 13.889474 13.772752
4550 1 1 -0.2623 28.772760 14.482121 14.580355
2507 1 1 0.0896 26.299885 13.811030 18.489479
4556 1 10 -0.0801 28.470958 15.708944 15.419289
2513 1 2 0.2266 25.696697 14.473419 19.110579
4554 1 2 -0.2514 29.643387 11.446081 12.282770
4555 1 2 -0.043 30.843934 14.387509 15.172303
4548 1 1 0.2765 28.102465 12.823598 12.904121
2510 1 1 0.3852 27.573422 13.374067 18.912168
4553 1 2 -0.2763 26.745935 14.213688 13.868262
711 1 11 0.1829 29.406867 15.964061 16.419067
2511 1 1 0.1829 28.324494 12.544109 18.045739
2512 1 1 0.0839 27.779387 12.028546 16.856780
3506 1 4 0.1829 31.808698 13.196123 19.380326
656 1 2 0.0078 32.111567 12.501011 17.196108
708 1 2 0.0896 32.193486 18.022788 19.363437
657 1 6 0.2266 32.414791 13.577699 15.158611
6482 1 1 -0.0531 14.534327 16.779145 21.727797
6483 1 1 0.2266 14.635152 15.390558 21.509504
6488 1 2 -0.0801 13.734063 14.788099 21.418526
293 1 6 0.2266 17.999323 13.447307 20.835808
6491 1 10 -0.2763 15.966077 13.250807 21.061677
6493 1 4 0.0277 12.133645 16.824923 21.760118
43 1 1 0.0896 12.002189 20.835134 21.046199
6492 1 10 0.0871 13.174395 17.458561 21.773992
6486 1 1 0.1829 15.884756 14.734072 21.429406
6495 1 4 0.2266 14.952053 12.621711 20.817790
6481 1 1 -0.0632 15.731248 17.501876 21.919507
55 1 6 -0.0483 14.044571 19.299252 21.581682
53 1 11 -0.2763 13.167994 18.846236 21.801271
6485 1 1 0.1829 17.052155 15.477181 21.690388
6234 1 2 0.3852 14.922643 12.621244 28.865398
6239 1 4 -0.0632 12.817994 15.910245 28.638894
2495 1 1 0.2886 16.618119 17.901270 25.101610
1050 1 6 0.0872 13.617015 12.488738 23.489655
2496 1 1 -0.2514 15.297505 20.383097 24.985344
6518 1 2 0.0871 12.268059 13.193875 22.583388
1041 1 1 0.0872 16.563006 12.787246 24.837562
2501 1 2 0.0866 17.127176 16.946840 25.155870
4636 1 1 -0.0632 14.040429 20.855949 31.933076
1048 1 2 -0.043 16.740159 13.796613 24.485228
2502 1 11 -0.0801 18.193650 18.583151 23.379769
2729 1 6 -0.2763 13.316083 12.831969 29.185661
6521 1 10 0.0866 13.836769 14.220118 24.582954
6487 1 2 -0.0531 15.687779 18.573360 22.059732
1040 1 1 0.0277 17.581869 12.044735 25.452234
6235 1 10 -0.043 13.388511 14.854375 28.850541
2500 1 2 -0.3506 15.156232 17.384884 26.626027
2494 1 1 -0.0091 15.500520 18.139605 25.918734
2493 1 1 -0.0801 14.821528 19.362437 25.828393
6237 1 10 -0.0531 17.826286 17.152648 28.507821
4635 1 1 0.0872 14.005148 21.255294 30.583824
6516 1 1 0.0866 12.487795 14.691165 24.103088
2894 1 11 -0.2415 11.800691 20.214338 30.270388
2914 1 1 -0.0507 17.574769 16.128497 32.023147
6230 1 1 0.0078 15.535365 13.513929 28.851472
6525 1 4 -0.0801 14.436936 14.790322 25.479321
2499 1 2 0.0866 13.907228 19.498637 26.393311
4632 1 1 0.0866 15.214517 21.588180 29.942814
6238 1 4 0.2266 17.303672 18.240674 28.679503
4634 1 1 0.0866 16.468744 20.855895 31.897558
2498 1 1 -0.0632 17.098994 18.893828 24.238816
6515 1 1 0.0872 11.847878 15.737622 24.771437
2913 1 1 -0.379 16.387938 15.562626 32.510729
1042 1 1 -0.043 15.301012 12.201610 24.642824
6228 1 1 -0.0531 17.697366 14.609084 28.766378
2503 1 11 -0.0645 14.523573 21.572725 24.880759
4633 1 1 0.0896 16.449969 21.354579 30.579820
46 1 1 -0.0632 12.073027 19.741875 21.926687
2504 1 2 -0.0632 16.857283 20.931552 23.571084
2497 1 1 -0.2514 16.473839 20.160539 24.232257
2727 1 11 0.0277 12.727260 13.666263 29.123509
1046 1 11 -0.0632 14.234437 12.970778 24.126633
2898 1 6 -0.0092 12.013517 19.786617 31.164674
6236 1 10 0.0078 17.638958 12.101522 29.014769
6231 1 1 -0.2763 16.941611 13.424311 28.874675
4641 1 10 -0.0801 12.751956 21.095301 29.760232
4639 1 2 0.0587 17.416650 20.645803 32.384474
6226 1 1 -0.0507 15.662226 15.928457 28.794342
6227 1 1 0.0078 17.063338 15.869870 28.709804
6229 1 1 -0.0092 14.888147 14.759579 28.833560
6232 1 2 0.0896 15.161968 16.890451 28.760936
6519 1 2 -0.2623 12.416328 16.248557 25.533815
3643 1 4 0.0866 14.702440 12.052257 31.582266
6490 1 10 0.0078 18.246140 17.604724 22.375668
4645 1 4 0.1829 12.714988 21.487865 28.604912
6484 1 1 0.0866 16.986396 16.858840 21.984537
2896 1 2 0.0873 12.067151 18.681551 28.073025
4643 1 12 -0.0632 17.746068 21.505780 29.839581
6513 1 1 0.2765 11.778296 14.000163 23.111219
2920 1 2 -0.0507 17.618382 17.194149 31.817971
2720 1 1 0.0866 11.336754 13.404694 29.234673
6489 1 2 -0.2763 17.994985 14.919335 21.694055
3639 1 10 -0.2763 14.362584 12.576358 32.630227
2916 1 1 0.2266 16.303705 14.171561 32.701612
3634 1 1 0.0078 13.081735 12.181691 33.321665
4642 1 10 -0.2623 15.222628 19.952372 33.932032
2868 1 2 0.0839 13.395503 17.799398 34.010739
2869 1 6 0.0278 16.448510 18.420757 33.280681
4637 1 1 0.2266 15.264868 20.604187 32.578091
2867 1 11 0.0872 15.851513 18.715926 34.045375
2923 1 11 0.0872 15.087668 13.618047 33.186120
5940 1 4 0.0839 12.428852 15.753738 32.797745
3633 1 1 -0.043 12.118589 11.454911 32.598356
2925 1 6 0.0586 14.648953 14.129653 33.938321
2924 1 2 0.0895 17.370017 12.290717 32.635136
5936 1 10 -0.2514 11.702712 15.639100 33.773930
2917 1 1 -0.0632 17.427187 13.361795 32.455002
4640 1 2 0.0866 13.113218 20.610600 32.440858
2919 1 2 0.0278 15.512997 16.183718 32.657806
2505 1 6 0.1829 13.934057 21.718906 25.678739
2723 1 2 0.2765 11.713301 11.315357 28.947328
6045 1 4 0.0872 23.680093 21.222402 34.495515
1373 1 1 -0.0632 20.071296 21.294561 20.982252
1490 1 1 0.2266 21.873127 12.796119 21.590965
5678 1 2 0.0078 21.100039 15.846088 25.139961
6233 1 2 0.0896 18.781198 14.541078 28.744124
1067 1 1 0.0078 19.461536 19.165029 26.741989
1507 1 2 -0.379 21.341555 21.565595 31.254799
1070 1 1 0.2266 19.927803 17.983439 27.353915
1065 1 1 0.2266 21.555131 19.334852 25.519524
6240 1 4 -0.2514 18.838642 12.003650 28.840121
4828 1 10 0.2266 20.874760 13.165042 30.998764
1074 1 11 0.0866 19.065851 17.006976 27.910620
1078 1 6 0.0866 19.371957 16.058863 27.728967
5681 1 10 -0.0632 19.433346 13.752189 25.585723
5679 1 2 -0.2514 21.085431 11.758894 26.620199
1049 1 6 -0.0632 19.579318 11.709238 25.654894
2915 1 1 -0.2514 18.688003 15.312896 31.754908
4644 1 4 -0.0802 18.767887 20.948107 30.194776
1047 1 11 -0.2514 18.920175 12.468476 25.529525
4832 1 4 0.2266 21.120358 14.139086 30.311082
5676 1 1 -0.0531 20.906682 13.815378 25.859097
2506 1 6 -0.2514 19.082383 18.979422 23.683357
5685 1 4 -0.0521 18.754377 14.760128 25.482545
2921 1 2 0.0278 19.570311 15.771336 31.330103
1073 1 2 -0.0521 18.442112 19.509768 26.888706
1496 1 2 0.04 20.432230 12.421879 23.163052
2918 1 1 0.0277 18.627843 13.917838 31.976332
1489 1 1 0.2266 20.884961 12.040317 22.250900
1501 1 1 0.2886 21.406985 20.529129 31.574267
1072 1 2 -0.0632 19.936384 20.768010 25.369499
1076 1 2 -0.2514 21.619996 16.724732 27.753439
1069 1 1 -0.2763 21.265790 17.591739 27.196529
2922 1 11 0.0586 19.732504 13.030793 31.784861
1066 1 1 -0.0632 20.294965 19.862192 25.852981
5675 1 1 0.0078 21.586338 12.700923 26.397775
1374 1 1 0.0866 20.432384 21.326470 22.330780
5673 1 1 -0.0632 21.617428 15.009056 25.601512
2926 1 6 -0.0496 19.670752 12.186041 32.339129
1380 1 2 0.1829 20.149193 20.482471 22.959911
1502 1 1 0.1829 21.583496 17.843422 32.396012
6494 1 4 -0.2763 19.322209 17.255061 21.918475
1509 1 11 0.2765 21.509155 16.508605 32.864020
1511 1 6 0.1829 20.613621 16.260160 33.265865
1508 1 11 -0.2514 20.433077 21.147015 33.725029
4130 1 2 -0.0801 20.158522 14.899994 34.376188
1510 1 2 -0.0521 20.758547 18.516977 34.261422
1503 1 1 -0.0801 21.080060 18.819637 33.267626
1504 1 1 0.0078 20.972805 20.160314 32.861323
6310 1 10 -0.0632 22.591378 15.180905 21.644005
6387 1 10 -0.2514 24.581846 20.649727 21.665163
1494 1 11 -0.2623 22.438102 13.921217 22.221406
848 1 2 0.3852 24.525004 13.169089 23.297107
6383 1 2 0.0078 25.034910 20.177576 24.339557
6386 1 10 0.1829 24.334888 21.592625 26.664646
6400 1 10 0.0866 25.269853 15.639144 29.492389
1077 1 6 -0.2514 23.922903 18.390135 25.432042
1068 1 1 0.0277 22.032402 18.173699 26.159654
1922 1 1 -0.0521 25.155434 18.103207 29.956523
1923 1 1 0.0278 25.078581 18.613855 28.645363
1924 1 1 -0.2623 25.213357 19.990511 28.398882
1929 1 11 -0.2514 24.799388 16.753788 30.178752
1930 1 2 0.0866 24.845906 17.942683 27.825573
1499 1 1 -0.0531 22.005887 18.208856 31.097804
1498 1 6 -0.2514 22.914703 13.711204 23.104104
5672 1 1 0.0866 22.988327 15.120172 25.918830
5684 1 4 0.0078 24.825562 11.727851 27.651778
6378 1 1 -0.2763 24.795096 21.217460 24.145419
5680 1 10 0.1829 23.699797 11.588756 27.212341
1928 1 11 -0.2763 25.091660 20.496744 27.065669
5682 1 10 0.0277 23.817595 16.363328 25.662734
4827 1 2 -0.2623 23.526058 13.343501 31.326453
1931 1 6 -0.2763 23.868741 16.665660 30.598587
4823 1 1 0.0871 23.231404 12.304921 31.228808
5677 1 2 -0.2763 24.723767 13.960127 26.589784
6404 1 4 -0.043 24.519217 14.688074 29.361554
5671 1 1 0.0872 23.645995 13.970658 26.412744
1506 1 2 0.0839 22.168836 19.851803 29.678884
5683 1 4 -0.2514 25.016658 16.242572 25.455238
5674 1 1 0.0866 22.954873 12.774361 26.664465
1075 1 11 0.0871 23.281301 17.654861 25.712540
6377 1 1 -0.2763 24.654472 21.651801 22.801513
6314 1 4 -0.0801 23.148976 16.076679 22.254455
1071 1 2 0.0078 22.160945 19.833520 24.767874
6388 1 4 -0.0632 24.586227 19.454843 21.907636
1505 1 2 0.2886 22.426856 17.475835 30.400945
1500 1 1 0.2266 21.892242 19.552529 30.686080
4822 1 1 0.0866 21.855711 12.033569 31.083715
4136 1 4 -0.0507 23.693840 15.911102 32.798765
4129 1 2 0.1829 24.275539 13.757999 33.871060
4132 1 10 0.0866 22.562564 15.679380 33.185348
4124 1 1 0.0872 23.274486 13.544481 34.247574
4127 1 1 -0.2415 22.248676 14.479046 34.048244
4824 1 1 -0.0632 24.172590 11.251877 31.339737
1919 1 1 -0.043 25.389707 18.969837 31.042626
5913 1 1 -0.2514 28.231495 21.355174 21.463695
5914 1 1 -0.2763 27.827175 18.584329 21.797386
3501 1 2 0.2266 32.066909 14.669926 21.633672
6595 1 10 -0.0632 28.559071 12.713738 21.188780
5924 1 4 0.1829 27.420557 16.426822 20.925246
1932 1 6 0.2266 25.470405 19.926490 26.319889
3169 1 1 0.2266 32.127708 17.595035 31.824204
844 1 1 0.0872 27.194742 15.250606 23.571316
6395 1 1 0.0871 27.710614 16.508228 29.228192
3287 1 11 0.0871 27.882575 21.225313 25.186207
6391 1 1 -0.0531 27.046320 14.425280 28.207845
3025 1 1 0.0839 30.195054 13.839816 32.061693
6399 1 2 -0.2514 27.576794 17.348938 29.889069
5911 1 1 0.0278 27.734080 19.466663 22.901629
6393 1 1 -0.043 29.344062 15.159350 28.022011
2981 1 6 -0.379 31.330734 15.773507 22.808383
3176 1 2 0.0078 31.122257 17.799146 32.170601
3289 1 6 0.3852 27.407022 20.336254 25.128120
3027 1 1 -0.2514 27.823871 14.249181 32.239939
2971 1 1 -0.2763 31.151744 20.304495 24.303317
846 1 1 -0.0632 27.528748 13.304975 25.014270
6402 1 10 0.0871 28.731474 12.867483 27.193002
3029 1 1 -0.0801 28.633364 12.299268 31.041969
3030 1 1 -0.2514 27.571575 13.069451 31.519292
3035 1 11 -0.2763 31.074083 11.798628 31.106585
1925 1 2 -0.2763 25.432318 18.605352 32.072750
842 1 1 0.0279 25.540759 13.460755 23.595491
2974 1 1 -0.0531 31.499206 19.496107 25.400641
6392 1 1 0.0277 28.354063 14.205566 27.748838
3038 1 6 -0.2763 25.677447 13.361703 30.795213
853 1 6 0.0586 27.733193 17.207706 23.963492
6397 1 2 0.157 26.309862 13.647304 28.073924
5920 1 10 -0.379 27.654445 17.090767 21.915486
841 1 1 -0.0632 26.041881 14.643262 23.043608
2982 1 6 -0.0092 31.149332 20.898500 26.902015
3277 1 1 0.2266 28.667959 20.956244 27.521054
1926 1 2 0.0078 25.636865 21.022549 31.642783
3034 1 11 -0.2514 26.239033 12.672831 31.257930
6403 1 4 0.0866 29.233287 12.027920 27.917201
3037 1 6 -0.0531 31.952831 12.301495 31.090847
2979 1 11 -0.379 31.740220 16.133859 23.662583
6398 1 2 0.0078 30.372106 14.982312 27.714857
3283 1 2 0.2266 28.964861 19.940032 27.320525
845 1 1 0.0839 27.917997 14.590885 24.578152
2973 1 1 0.3852 31.662468 18.107704 25.195904
3177 1 6 0.1829 31.042447 15.352672 29.933804
2970 1 1 0.3852 31.003291 19.748096 23.014059
3284 1 2 -0.2763 29.282612 20.784684 29.589682
2969 1 1 -0.0632 31.204267 18.367601 22.831347
852 1 2 0.0895 28.805853 15.067806 24.978387
5917 1 2 0.0078 27.489431 19.063848 23.878236
6599 1 4 -0.2514 29.091000 13.161687 22.184562
851 1 11 -0.0632 27.570643 16.568351 23.196489
5912 1 1 0.0277 27.997830 20.853291 22.758321
2972 1 1 0.2886 31.544730 17.536631 23.911609
4829 1 10 -0.0531 25.646877 11.469302 31.606343
6394 1 1 0.0866 26.685170 15.577078 28.938174
1632 1 2 0.0873 31.997909 13.391304 27.352886
6396 1 1 0.2266 29.029012 16.282837 28.806824
1921 1 1 -0.0801 25.422045 20.852563 29.492398
2980 1 2 0.0866 31.884700 17.474567 26.045823
1920 1 1 0.0866 25.505052 20.346836 30.802913
847 1 2 -0.0507 25.469627 15.128411 22.266643
3278 1 1 -0.3506 28.836995 21.433840 28.832962
850 1 11 -0.2415 28.332139 12.540682 25.905516
849 1 2 0.0896 25.990213 11.793126 24.918504
3168 1 1 0.2266 32.285677 16.843184 30.647221
3175 1 11 -0.2514 31.162083 16.357520 29.941590
6401 1 10 0.0078 30.137897 17.111025 29.382812
2978 1 11 -0.0483 31.729129 20.098512 26.676003
6405 1 4 0.0871 30.054568 18.324419 29.491315
843 1 1 -0.0645 26.325399 12.749628 24.531974
3028 1 1 0.0871 29.958032 12.646855 31.358806
2977 1 2 0.0839 31.006893 21.375126 24.437258
2976 1 2 0.0872 30.746590 20.381967 22.167456
2975 1 2 0.0866 31.093733 17.932906 21.844898
5922 1 10 0.0866 28.151143 21.784079 23.948685
3280 1 1 -0.0521 28.134064 21.764701 26.492890
3036 1 2 0.0839 28.384217 11.428306 30.458872
854 1 6 0.0839 28.524145 11.595648 25.599240
3497 1 1 -0.0531 32.432914 13.784509 22.165227
3031 1 2 0.1829 31.206596 14.127045 32.304822
3032 1 2 -0.0632 29.359914 15.546737 33.067084
3026 1 1 0.2266 29.138517 14.643024 32.505759
3778 1 4 -0.2415 31.001587 19.554402 33.737452
3774 1 10 0.157 32.120817 19.586004 34.206540
3033 1 2 0.0872 26.995610 14.865554 32.589262
2863 1 2 0.0839 17.240357 17.222521 35.869751
2099 1 6 -0.0444 14.739996 19.616972 37.849716
3630 1 1 -0.0483 11.591446 12.164800 35.281095
5138 1 4 0.0078 14.447142 19.894021 40.963726
2858 1 1 0.0866 15.641257 15.936697 36.584990
2639 1 2 0.2266 18.110861 12.447347 38.669380
2087 1 1 -0.043 17.256472 19.573511 38.099871
2090 1 1 0.0866 16.371025 20.392435 38.809612
6324 1 2 -0.2514 16.931518 21.727631 35.413147
5131 1 2 -0.0521 12.581408 19.737523 37.598917
2093 1 2 -0.0507 16.897377 18.657940 37.643260
1739 1 1 0.0078 16.007172 14.014012 42.851882
3631 1 1 -0.0632 12.821370 12.501273 34.672849
2097 1 11 0.157 15.002891 20.007250 38.749620
2795 1 2 0.0401 12.101386 12.708996 42.008151
2864 1 2 0.2765 16.279862 15.424381 37.314452
5129 1 1 -0.0521 12.799026 17.539641 40.192978
5134 1 10 0.0278 14.176403 19.641939 39.801839
5126 1 1 0.0896 11.345866 17.969793 37.815083
3636 1 2 0.0871 13.586681 12.991994 35.260583
2860 1 1 0.0896 15.363704 17.664847 34.877475
3641 1 4 -0.0531 11.835978 13.522648 37.242482
2862 1 1 0.2266 13.492030 16.181155 35.438846
973 1 2 0.1829 17.144983 18.563112 42.001898
5133 1 2 0.1829 13.358199 17.354359 41.110580
2645 1 6 -0.043 17.404661 13.175040 36.139822
5125 1 1 0.0896 12.349476 18.876576 38.220590
2865 1 2 0.2765 13.889029 14.743091 37.042322
1745 1 2 0.0871 16.546626 14.283128 41.950923
5128 1 1 0.2266 13.070401 18.684582 39.417337
5130 1 1 0.04 11.823309 16.597975 39.795613
2861 1 1 0.0839 14.020745 17.277423 34.733318
3640 1 12 0.0896 11.300979 12.568850 36.708935
2857 1 1 0.0839 16.187621 16.960623 35.778295
1744 1 2 -0.0632 14.098180 14.221770 41.910423
2866 1 11 0.1829 12.187376 15.725339 35.080603
2859 1 1 0.0866 14.287806 15.554573 36.428549
4646 1 4 0.2765 14.419094 20.341939 34.757782
1738 1 1 -0.043 14.610378 13.974303 42.834406
5139 1 4 -0.2514 11.989380 15.430654 41.833627
3438 1 2 -0.0801 12.866236 11.433751 38.736550
2870 1 6 -0.0531 11.536514 15.599003 35.845196
967 1 1 -0.0521 18.105225 18.683483 42.490333
2091 1 1 0.0872 16.848380 21.585413 39.403960
5135 1 10 0.0872 11.550832 15.418677 40.700888
1743 1 2 -0.0531 12.814985 13.650026 43.982551
2466 1 1 0.0839 14.442084 17.217095 44.214556
1742 1 1 -0.2514 16.711079 13.743162 44.030969
3803 1 1 0.0077 14.511656 20.862303 45.311476
2474 1 11 -0.0444 14.370416 15.726849 47.583286
979 1 6 -0.0531 16.350016 20.129840 43.856130
3899 1 0 0.2266 17.996302 12.286872 48.241720
3813 1 4 0.0872 17.201536 18.711925 46.551680
3807 1 2 0.0278 14.714895 20.819280 44.246969
3799 1 1 0.0278 13.073880 21.571506 47.130680
2473 1 2 0.0839 15.738836 15.947121 45.387178
4544 1 4 -0.0521 15.256938 11.579562 47.474360
4540 1 10 0.0866 14.166647 12.115261 47.405480
2465 1 1 -0.0801 13.253307 17.958560 44.215650
970 1 1 -0.2763 18.147699 19.124499 43.827205
2477 1 6 -0.2763 11.854682 19.940419 45.642316
1741 1 1 -0.2514 15.998710 13.342029 45.181849
1740 1 1 -0.0531 14.581111 13.265327 45.172434
1748 1 2 -0.0531 16.550495 13.111493 46.082497
2475 1 11 -0.0091 11.474296 19.030762 45.420515
4538 1 2 0.0866 11.409868 12.513867 47.406829
3801 1 1 -0.0521 14.986933 20.158515 47.591610
3800 1 1 -0.0507 13.855496 20.855733 48.049689
1737 1 1 0.1829 13.897825 13.628700 43.997615
2478 1 6 -0.0483 14.760890 14.825029 47.339720
977 1 11 0.0872 16.953661 19.577742 44.453787
3804 1 1 0.0895 15.327103 20.150488 46.222775
1746 1 11 -0.0531 18.127177 13.880098 43.982547
3802 1 1 -0.2763 13.403902 21.606635 45.764387
2476 1 2 0.0078 12.201974 17.352683 47.398686
1747 1 11 0.0839 13.796543 12.898497 46.316689
1749 1 6 0.0871 12.850383 13.265242 46.330212
2467 1 1 -0.0632 14.813780 16.512976 45.363984
2468 1 1 0.0896 12.464917 18.031353 45.366182
2470 1 1 0.1829 13.987018 16.522084 46.492846
3809 1 10 0.1829 16.560069 19.401838 45.776048
2469 1 1 -0.2763 12.822857 17.300968 46.506809
2472 1 2 0.0078 15.091231 17.211691 43.345065
2471 1 2 0.2266 12.951398 18.554442 43.371496
3891 1 2 0.04 16.364082 14.226356 48.167609
3437 1 2 0.0866 13.656847 11.252581 41.097803
975 1 2 0.0278 21.450382 18.326612 41.910910
2642 1 11 0.0871 20.489061 17.214286 38.433110
2635 1 1 -0.0521 19.562128 15.367035 39.697300
6326 1 10 -0.0632 19.428097 21.002049 34.668203
2643 1 11 -0.0632 18.394629 13.390772 36.154578
4125 1 1 0.1829 20.640941 12.934667 35.120190
2088 1 1 0.04 18.584407 19.959001 37.919321
6330 1 4 0.0872 18.772773 19.981565 34.784244
2094 1 2 -0.2514 19.224003 19.349758 37.299233
2095 1 2 0.2266 20.087503 21.422987 38.257423
2634 1 1 -0.0632 18.917334 14.125950 39.764366
2633 1 1 0.0871 18.570141 13.435854 38.592410
4131 1 10 -0.2623 19.198162 12.559504 35.387578
2636 1 1 0.04 18.807172 14.042201 37.340541
2637 1 1 -0.0531 19.395181 15.317105 37.277689
2638 1 1 0.0278 19.820816 15.963454 38.454708
5647 1 2 -0.2514 20.462582 13.361331 42.813636
974 1 2 0.2886 19.292417 18.059579 40.760384
2641 1 2 0.0278 19.868496 15.857621 40.616060
968 1 1 0.0078 19.297500 18.401473 41.793950
2644 1 2 -0.0531 19.524157 15.795609 36.312945
2640 1 2 -0.2514 18.700107 13.699048 40.731402
6040 1 10 0.0872 21.418832 17.649640 37.494430
2089 1 1 -0.0531 19.060315 21.149962 38.478115
2646 1 6 -0.2763 20.276098 17.819815 39.224426
969 1 1 -0.2514 20.530814 18.553883 42.439022
4126 1 1 0.3852 20.956076 14.182469 34.548254
4135 1 4 -0.0801 18.726144 11.553217 34.889864
4122 1 1 0.0587 21.670773 11.978990 35.190135
6044 1 4 0.0078 21.722243 16.992366 36.511138
6037 1 2 0.0278 21.829046 18.975796 39.880347
5648 1 2 -0.2763 20.465112 16.501703 45.799368
5642 1 1 -0.043 20.314487 14.841141 44.404876
5653 1 4 0.0871 18.628760 14.634536 46.087530
972 1 1 -0.0632 20.579000 18.931662 43.793052
978 1 2 0.04 19.448654 19.481581 45.534735
1233 1 1 -0.0531 21.708974 19.702953 48.115140
5652 1 10 -0.2763 18.989202 14.371887 44.951664
976 1 11 0.0866 21.806206 18.970733 44.501673
971 1 1 0.2765 19.391966 19.192140 44.490791
5643 1 1 -0.043 20.923189 15.983690 44.958835
1239 1 2 0.0866 21.064242 19.462485 47.278094
3760 1 4 0.0278 20.486653 11.311819 44.210273
3575 1 4 0.0866 19.083772 21.139901 47.717706
5641 1 1 0.1829 20.898773 14.246590 43.262109
3763 1 7 0.0839 20.329146 11.500123 46.415070
1750 1 6 0.2266 18.518562 13.825455 43.048694
3764 1 9 0.0278 19.533323 11.493153 46.973285
6031 1 1 0.0866 22.155997 19.552387 39.024456
5650 1 10 -0.0632 22.550630 14.218383 41.340309
4470 1 2 -0.2623 24.724841 18.634490 38.773222
2435 1 6 -0.0483 23.714578 15.887819 41.036390
6036 1 1 0.0872 23.062320 21.008321 36.799197
2884 1 6 -0.0507 25.363091 12.237439 42.090965
2880 1 11 0.0078 24.920667 12.225990 43.003337
2436 1 6 0.0896 24.440704 16.374758 35.414251
2423 1 1 0.157 24.762757 13.457855 39.220726
2426 1 1 -0.0645 24.088831 14.680831 39.407555
2427 1 1 0.1829 24.130973 15.651133 38.396875
2428 1 1 0.0277 24.844048 15.418278 37.208817
2432 1 11 -0.2514 24.981526 16.468548 36.267001
5649 1 2 -0.0632 23.435783 16.438934 42.715355
2434 1 2 0.0866 23.653869 16.613267 38.556020
6035 1 1 0.1829 22.518783 19.726869 36.637911
6043 1 4 -0.043 22.236227 20.893406 41.544599
2429 1 2 0.0839 24.776996 12.709329 40.006741
4475 1 4 -0.2623 24.553897 18.236596 41.431872
6034 1 1 -0.2514 22.033805 19.000280 37.734042
6033 1 1 0.1829 23.152064 21.558839 38.091003
6032 1 1 -0.0531 22.727141 20.827950 39.219400
2433 1 11 0.3852 23.435581 15.006984 40.624054
4137 1 7 0.157 25.289604 11.678844 34.883872
6042 1 10 0.0078 22.861264 21.378988 40.618837
6039 1 2 0.0078 22.449870 19.299530 35.643924
4123 1 1 -0.2763 22.980658 12.280883 34.780916
5654 1 4 -0.0531 22.148972 13.153343 40.903287
6041 1 12 0.0866 23.542686 21.748363 35.586989
5644 1 1 -0.0531 22.022131 14.810304 42.628871
2883 1 6 -0.2415 24.058703 14.296790 47.412321
5645 1 1 0.2266 22.589228 15.965790 43.195134
2876 1 1 -0.0496 25.181552 13.406475 43.753961
2882 1 2 0.04 24.483139 12.730099 45.707915
2875 1 1 0.0873 24.926498 13.539881 45.134197
623 1 2 -0.2763 24.123450 21.320308 43.205046
5651 1 10 -0.2623 22.581126 17.868608 44.822294
5646 1 1 -0.2763 22.056222 16.548430 44.350336
5655 1 4 0.0277 23.505233 17.944988 45.611081
2874 1 1 -0.0521 25.228420 14.746321 45.789085
2881 1 11 -0.043 24.831079 14.879545 47.135532
980 1 6 0.0896 22.021790 19.841354 44.972495
3709 1 4 -0.0507 29.096813 21.697962 46.709892
1851 1 1 0.0278 32.460981 12.721780 42.687563
2424 1 1 -0.2763 25.469131 13.213074 38.029414
2425 1 1 -0.043 25.484317 14.179310 37.010915
4478 1 9 0.0871 31.432652 16.999836 40.211445
6504 1 2 0.0866 30.945059 13.124038 39.659742
4477 1 7 0.0839 30.479373 17.148565 40.345632
3769 1 1 -0.0632 31.397103 20.117268 36.554261
4474 1 4 -0.2514 30.580568 16.992556 38.111228
3770 1 1 0.1829 31.678824 20.566796 37.864990
2405 1 11 0.157 26.072988 19.637081 42.322870
8 1 2 0.0871 28.735967 13.869366 35.802680
4468 1 2 0.2266 28.306137 18.312237 41.140274
2431 1 2 -0.2514 26.029814 13.966766 36.095299
201 1 1 0.0078 28.486495 11.590886 42.272239
5 1 1 0.0866 32.102878 12.003199 36.233677
4462 1 1 -0.0521 27.796818 18.201411 40.183828
6 1 1 -0.0632 32.098411 13.404310 36.203309
2398 1 1 0.157 26.991704 20.711268 42.306039
209 1 6 0.1829 27.382536 11.980078 39.571601
4467 1 1 -0.0632 26.416897 17.821761 37.748945
200 1 1 0.0839 28.611070 12.446593 41.161246
4472 1 10 -0.2763 25.688437 17.647601 36.449231
4466 1 1 0.0278 25.773037 18.390715 38.853761
2 1 1 -0.3506 29.687184 13.344757 35.904839
6500 1 1 -0.0531 31.413405 12.141042 39.632520
16 1 1 0.0078 27.418754 21.796042 35.685611
3 1 1 -0.0531 30.869007 14.078786 36.096083
2406 1 2 -0.3506 26.801917 21.213037 40.189568
7 1 2 -0.3506 28.822458 11.354503 35.690716
4473 1 12 -0.2763 29.933516 17.262222 39.110055