LAMMPS data file via write_data, version 29 Oct 2020, timestep = 100100

6690 atoms
12 atom types
6690 bonds
17 bond types
9486 angles
23 angle types
16176 dihedrals
42 dihedral types

-5.0 70.0 xlo xhi
-5.0 70.0 ylo yhi
-5.0 70.0 zlo zhi

Masses

1 12.01
2 1.008
3 12.01
4 16
5 14.01
6 1.008
7 16
8 14.01
9 1.008
10 12.01
11 14.01
12 12.01

Pair Coeffs # lj/cut/omp

1 0.086 3.39967
2 0.015 2.59964
3 0.086 3.39967
4 0.21 2.95992
5 0.17 3.25
6 0.0157 1.06908
7 0.2104 3.06647
8 0.17 3.25
9 0 0
10 0.086 3.39967
11 0.17 3.25
12 0.086 3.39967

Atoms # full

878 63 5 0.0 -4.667190592199322 -4.814575636905747 -3.738895529697714 2 1 0
570 41 5 0.0 4.011248033199784 3.101073982947047 68.60442656104883 0 0 0
574 41 6 0.0 4.300964709230857 2.1794329546263596 68.63720437367408 0 0 0
569 41 2 0.0 6.571775697570102 2.6076200679246093 68.80904677351319 0 0 0
566 41 1 0.0 4.99406472302557 4.073097048242225 68.72155196580732 0 0 0
563 41 1 0.0 6.336945488458874 3.6290537470568593 68.7453567140244 0 0 0
573 41 6 0.0 4.34071325843064 8.055906126834957 68.825337457638 0 0 0
572 41 2 0.0 3.5077726800137836 5.747934156546349 68.83186132295889 0 0 0
562 41 1 0.0 7.360660230263551 4.570890850602531 68.7480617879275 0 0 0
568 41 2 0.0 8.402308698399425 4.2389776308505445 68.77871590135365 0 0 0
567 41 2 0.0 7.752353833306741 6.7043287716346684 68.89580330600579 0 0 0
565 41 1 0.0 4.5916818844670075 5.4599847058528885 68.81082680150627 0 0 0
571 41 5 0.0 5.318784771136338 7.751478942227377 68.88308195830734 0 0 0
561 41 1 0.0 6.984268339043776 5.94470161591639 68.83907339858526 0 0 0
564 41 1 0.0 5.635270406098296 6.381644758562089 68.85148281282324 0 0 0
1665 119 6 0.0 -0.38376624807354803 19.77911993922549 -3.420440816668558 0 1 0
1663 119 5 0.0 0.5095488176904263 20.22744500564969 -3.532410874081284 0 1 0
1659 119 2 0.0 0.22798738816764186 17.601393666878 -3.831294777595409 0 1 0
1656 119 1 0.0 1.5523025944064652 19.351489520622724 -3.7905029040800478 0 1 0
1653 119 1 0.0 1.2721572176809637 17.929507763345324 -3.6971792016484732 0 1 0
1654 119 1 0.0 2.351109536959024 17.010709786280977 -3.758416164351208 0 1 0
1660 119 2 0.0 2.2145634468100024 15.965187635220746 -3.692243339504012 0 1 0
1658 119 1 0.0 3.881123687069157 18.854997366497493 -3.785526250755999 0 1 0
1655 119 1 0.0 3.629616782754348 17.48213339244472 -3.7088279909036297 0 1 0
1657 119 1 0.0 2.8457488549916676 19.771987140426756 -3.824383406905815 0 1 0
1664 119 2 0.0 3.091560674386099 20.85605020473508 -3.9216869343616443 0 1 0
1661 119 2 0.0 4.50056716130364 16.854319755659958 -3.709592955934442 0 1 0
1666 119 6 0.0 5.8275074667140085 18.52613302300989 -3.5380947319156 0 1 0
1662 119 5 0.0 5.217286673785601 19.28623034101694 -3.7582143069136316 0 1 0
5758 387 4 0.0 16.709966656594702 14.918844891090503 -3.7931048079185232 1 0 0
5748 387 1 0.0 20.277009665003316 15.859350534801973 -3.794737684046463 1 0 0
5756 387 3 0.0 22.631660472474458 16.71239430250837 -3.9207392036724804 1 0 0
5753 387 2 0.0 20.664598512242478 14.876204650755053 -3.6621761348344166 1 0 0
5757 387 3 0.0 17.92675507756013 14.93785577183527 -3.807045568668891 1 0 0
5754 387 2 0.0 21.35356469180221 19.078947241592903 -3.84291381283714 1 0 0
5751 387 1 0.0 21.18496128025884 16.94283197970425 -3.843488986140986 1 0 0
5755 387 3 0.0 18.78183099741252 19.882364518702285 -3.853823368422318 1 0 0
5749 387 1 0.0 19.331765696606773 18.452068742623712 -3.8027236037855063 1 0 0
5750 387 1 0.0 20.717568538984317 18.22978763228777 -3.817932315619656 1 0 0
5759 387 4 0.0 17.58675316713132 19.978935854765727 -3.677343014779494 1 0 0
5746 387 1 0.0 18.41969947640291 17.382497389217097 -3.806245849367736 1 0 0
5752 387 2 0.0 17.34958932908548 17.549812710006165 -3.944039563996625 1 0 0
5318 358 2 0.0 22.533400660937602 22.10210678132954 -3.7146979638339923 0 0 0
5747 387 1 0.0 18.840930652245095 16.064131044921247 -3.7466775047728773 1 0 0
5760 387 4 0.0 23.388177611141202 17.66939969410781 -3.9040928864875992 1 0 0
5313 358 1 0.0 23.20663370336938 22.908430256273814 -3.860605381063624 0 0 0
5316 358 1 0.0 24.593556052855 22.628280546377862 -3.898176522659726 0 0 0
5321 358 3 0.0 25.0362043831145 21.23864773298496 -3.838385505739293 0 0 0
5325 358 4 0.0 26.22021259388159 20.927264176977033 -3.8435346832526003 0 0 0
6538 439 4 0.0 31.842974282142837 19.28243532184081 -3.8930328638649696 0 1 0
5121 346 1 0.0 21.21532875982107 31.89822902540451 -3.8624929807499853 1 0 0
5322 358 3 0.0 21.284211024771974 24.621047903047764 -3.808805855990599 0 0 0
5312 358 1 0.0 22.74665769250932 24.264870349199374 -3.776715578161567 0 0 0
5323 358 4 0.0 20.827238189917797 25.74345422948141 -3.9171832789511707 0 0 0
5127 346 2 0.0 18.051033808310326 30.76969324502012 -3.970066480387999 1 0 0
5123 346 1 0.0 19.134229654551355 30.755519553757576 -3.945208053736998 1 0 0
5120 346 1 0.0 21.915957951715036 30.679718835401527 -3.8028821633317462 1 0 0
2463 176 6 0.0 21.6157536647203 27.52739228833699 1.804525485397642 0 0 0
2461 176 5 0.0 20.818970694198295 27.747073419307238 1.2358698237034558 0 0 0
2455 176 1 0.0 21.929906999826134 29.80344971584026 0.5746698242164796 0 0 0
5132 346 4 0.0 17.901228760988918 27.986561293174788 -3.5175056332712464 1 0 0
5122 346 1 0.0 19.77459493531757 29.515595660289335 -3.8958901093726137 1 0 0
5128 346 3 0.0 19.018399002105223 28.209764657619786 -3.865841647894495 1 0 0
5119 346 1 0.0 21.216135745495315 29.489829184621396 -3.904406679508449 1 0 0
2462 176 2 0.0 22.77657695897992 29.461418434376334 1.1804226474421797 0 0 0
5125 346 2 0.0 21.673751185595094 28.482399747252153 -3.921705628755281 1 0 0
2454 176 1 0.0 20.831043106048337 28.905732693952096 0.5625939697989002 0 0 0
2456 176 1 0.0 21.99988602358502 30.97583176951791 -0.12892061129219243 0 0 0
2458 176 2 0.0 18.755595522694847 30.898479512544103 -1.284313377039739 0 0 0
2453 176 1 0.0 20.847439071519595 31.33577827922009 -0.8342122733760299 0 0 0
2451 176 1 0.0 19.655723058480337 29.368931043194383 -0.07308363047226721 0 0 0
2457 176 2 0.0 18.692506014056953 28.781936705832486 -0.2657954439817864 0 0 0
5124 346 1 0.0 19.848554067707674 31.951145733780994 -3.913316352341925 1 0 0
4198 291 4 0.0 22.419129145914933 25.716171787055966 -1.1550235705040737 0 1 0
4124 287 2 0.0 21.989663405297613 27.68603288104176 3.982185926164387 1 0 0
2452 176 1 0.0 19.674370481800217 30.594262542521225 -0.783017403935124 0 0 0
4120 287 1 0.0 22.987612712517052 28.033353837094023 3.866732064393417 1 0 0
4130 287 4 0.0 22.140791777162868 31.404994194683297 4.0928069513095 1 0 0
4126 287 3 0.0 22.091213834181055 30.25448988664819 4.381196918339911 1 0 0
5319 358 2 0.0 26.596793118775874 23.425939880351116 -3.6226738527041706 0 0 0
5315 358 1 0.0 25.53557652987381 23.627384699235442 -3.765847054412272 0 0 0
5317 358 2 0.0 23.49767314201479 26.317781525421104 -3.768195807182095 0 0 0
5130 346 12 0.0 23.36038227851943 30.798342583509857 -3.660613458682321 1 0 0
5311 358 1 0.0 23.77115517790402 25.280022360539935 -3.8411324160119595 0 0 0
5135 346 9 0.0 23.435146629736238 28.842541877147237 -3.8937803011241603 1 0 0
2460 176 5 0.0 23.157969994986136 31.68069529034144 -0.15214973700885703 0 0 0
3074 220 2 0.0 30.428486832709847 31.678846522500557 1.7044410006275932 0 0 0
1888 135 2 0.0 25.769056803989663 26.660597306548794 6.384032439938241 0 1 0
5314 358 1 0.0 25.13810979373157 24.945427075070356 -3.796776546935178 0 0 0
4128 287 4 0.0 27.309880982322454 30.856414301783392 3.4461031694634428 1 0 0
5320 358 3 0.0 26.15226498279538 26.013450112372595 -3.770525951954797 0 0 0
5324 358 4 0.0 26.0114427444441 27.182750545666295 -3.8012102297875994 0 0 0
4187 291 1 0.0 26.786379695976546 25.677420490831405 -0.5672015215112328 0 1 0
4121 287 1 0.0 23.187158264136606 29.37904092339949 3.9425989294409867 1 0 0
4125 287 3 0.0 23.82638540087597 25.79300636460587 3.02188517937253 1 0 0
4119 287 1 0.0 24.043738259177164 27.217050635648064 3.4819618711932034 1 0 0
4129 287 4 0.0 24.758991952117885 25.034671045455326 2.725006439217149 1 0 0
4132 287 9 0.0 27.37071394639588 27.87672823031613 2.7605216342849257 1 0 0
4116 287 1 0.0 25.35549126865259 27.71090207366457 3.394889035708154 1 0 0
3306 237 1 0.0 30.805844860593773 24.557553568674408 -3.774513407916341 0 1 0
4122 287 2 0.0 26.122888409993696 27.05536125882954 3.0220534721527432 1 0 0
1886 135 5 0.0 24.536792559962546 24.365045550665887 6.1444367527751425 0 1 0
3307 237 1 0.0 32.17802478660083 24.828753371191087 -3.8158372975516937 0 1 0
4195 291 12 0.0 27.161680643310948 29.48767322527464 -0.20395095852219725 0 1 0
4196 291 4 0.0 26.533944655939777 30.50982372046763 -0.09370874720316458 0 1 0
4185 291 1 0.0 26.542781823921892 28.119919088275527 -0.3608567792641998 0 1 0
4193 291 3 0.0 27.608483298600984 24.456258141672485 -0.5236146730964039 0 1 0
3311 237 2 0.0 28.883864869162625 25.44190134027193 -3.748416436617932 0 1 0
4191 291 2 0.0 24.50076604226847 28.891285104631766 -0.25224649321946957 0 1 0
3305 237 1 0.0 29.908895681026436 25.59052061493955 -3.7505844891685984 0 1 0
4186 291 1 0.0 25.15655105916746 28.022624487437714 -0.4171558280908125 0 1 0
3315 237 5 0.0 29.489375588943435 28.064237646675497 -3.84140118650196 0 1 0
3312 237 2 0.0 30.4151514968027 23.555056016958616 -3.7936312588819683 0 1 0
4189 291 1 0.0 24.603555011977083 26.786882194621562 -0.7390843646931257 0 1 0
4194 291 3 0.0 23.125043813785517 26.551809650201754 -0.6239740753492444 0 1 0
4184 291 1 0.0 27.335827396543873 26.939262450937054 -0.41960117339007497 0 1 0
4188 291 1 0.0 25.401850762487538 25.592580633634334 -0.7038789581575937 0 1 0
4192 291 2 0.0 24.85233734063161 24.650687741429287 -0.8100833584110118 0 1 0
3309 237 1 0.0 31.753260979009262 27.21426370906502 -3.694992322194072 0 1 0
3308 237 1 0.0 30.368138867217652 26.941836483795726 -3.809198935632073 0 1 0
4200 291 9 0.0 28.800078857994528 28.7895564474988 0.39689466077819807 0 1 0
4199 291 7 0.0 28.462443937535454 29.536582799888237 -0.0002890167336036453 0 1 0
3316 237 2 0.0 32.14882114941913 28.260988101158258 -3.3995772237947492 0 1 0
4190 291 2 0.0 28.433777268547022 27.05228942743316 -0.4569042180468083 0 1 0
4197 291 4 0.0 28.820468991404333 24.42429290107573 -0.7258590495220797 0 1 0
5134 346 7 0.0 24.005798477426787 29.58355166963536 -3.7027638836300065 1 0 0
3317 237 6 0.0 29.953694487875186 28.987918628622882 -3.9707795044586214 0 1 0
4131 287 7 0.0 27.890476643214633 28.70633743195783 3.033766992569396 1 0 0
4118 287 1 0.0 24.496304276142904 29.89312357046888 3.806631511678599 1 0 0
4117 287 1 0.0 25.61907898774933 29.097844206029414 3.5607743603054534 1 0 0
4127 287 12 0.0 26.989482620683543 29.67376403145551 3.383293859895328 1 0 0
5376 362 1 0.0 31.895645196652012 24.64239236684552 7.083652637296645 0 0 0
900 65 1 0.0 22.910686375506415 32.45072305799127 9.145707891744086 0 0 0
5131 346 4 0.0 23.93418628399201 31.858581244223252 -3.9156473244463332 1 0 0
2466 177 1 0.0 31.29492216479883 27.837874422940498 0.3444048852994156 1 0 0
2472 177 2 0.0 30.79122922431229 28.30487360155453 -0.47305499579539634 1 0 0
3639 258 9 0.0 31.050271456789154 31.43511147974247 9.482670314305695 0 0 0
2473 177 2 0.0 31.928892805886477 26.100269963763697 -0.8167618701551516 1 0 0
2467 177 1 0.0 31.877879453513078 26.558725768031437 0.15120755895951893 1 0 0
2470 177 1 0.0 32.4037281823511 25.845043648972535 1.3093087101409397 1 0 0
2465 177 1 0.0 31.27215207988808 28.415013319383508 1.6265708877090324 1 0 0
2475 177 5 0.0 31.999083593483082 28.417444300372804 3.9241858092006994 1 0 0
2471 177 2 0.0 30.931799444269505 29.421802393290932 1.7813199861852114 1 0 0
2468 177 1 0.0 31.91607459423807 27.7327552784356 2.671171267661676 1 0 0
2477 177 6 0.0 31.76951379253966 29.400148019889283 3.9936353261049273 1 0 0
1890 135 6 0.0 24.031743324638484 25.228604264484733 6.388918390927038 0 1 0
3947 277 1 0.0 27.947007699385242 26.416424950618605 11.863963029888353 0 0 0
2788 200 1 0.0 25.6267006528021 22.570740077906514 12.880504880481912 0 0 0
3734 264 3 0.0 30.90551405354094 22.015923933165922 13.366232667827205 0 0 0
2794 200 2 0.0 25.693964706012967 22.12096313302758 11.923706391974227 0 0 0
1885 135 2 0.0 26.342588573005465 22.684373282750514 5.67575810264306 0 1 0
5385 362 4 0.0 32.37067155365376 22.351992078621333 6.818804663793516 0 0 0
2081 149 2 0.0 13.51849429208335 31.29240719514809 12.444484139589592 0 0 0
2086 149 6 0.0 15.494515154366757 31.13185160045216 11.255047278059676 0 0 0
1260 90 6 0.0 21.51287947007806 27.549085736346434 6.50532541633888 0 0 0
2767 198 2 0.0 21.83259753920282 26.132210046523213 12.101564233970901 1 0 0
1255 90 2 0.0 22.467807329406188 25.552370901507608 7.864904735959629 0 0 0
910 65 6 0.0 19.66567641159293 30.170479530094585 8.710749707743227 0 0 0
2765 198 2 0.0 21.308142186519806 30.346685265895076 12.68161415568593 1 0 0
2771 198 6 0.0 18.853039607552248 31.255677937890948 11.931181658558087 1 0 0
2082 149 5 0.0 16.095225374036747 31.78371027011747 11.770692026166765 0 0 0
6523 438 4 0.0 17.73515216117838 25.418713929512595 13.564159924567543 0 0 0
2764 198 1 0.0 20.00522298735241 26.96408916426721 11.10496325129813 1 0 0
2769 198 5 0.0 19.05557779295759 30.581505553911374 11.21859576594369 1 0 0
2759 198 1 0.0 20.965576864573954 29.441039303800277 12.20238879993767 1 0 0
2762 198 1 0.0 19.770625074649743 29.427886198595246 11.493326839911346 1 0 0
2770 198 2 0.0 18.41521761679031 28.262200019546917 10.334993170083777 1 0 0
2763 198 1 0.0 19.353071641166018 28.202969975907784 10.879849482520823 1 0 0
2766 198 2 0.0 22.62700343300107 28.18066397373254 12.932657538813874 1 0 0
2075 149 1 0.0 14.102986506852188 31.825011748019435 13.210255985913722 0 0 0
2772 198 6 0.0 19.60040783866347 25.850807352402988 9.469162247268633 1 0 0
2768 198 5 0.0 19.69089096651394 25.699096828816177 10.504465140072286 1 0 0
2760 198 1 0.0 21.69095263849144 28.193879589407945 12.375973230411004 1 0 0
2761 198 1 0.0 21.187214032234156 26.992385765482393 11.84842178036804 1 0 0
906 65 5 0.0 19.78791498502024 30.862477550375935 7.93131700867145 0 0 0
1256 90 5 0.0 22.1445614486342 28.18365223639129 7.0296757155243625 0 0 0
1252 90 1 0.0 22.90448002624546 27.66003343856841 8.122454424904545 0 0 0
902 65 1 0.0 20.953858012017438 31.603612995671927 7.935595667352435 0 0 0
901 65 1 0.0 21.871481956066752 31.487967958917338 9.018295907376498 0 0 0
908 65 2 0.0 21.698353361410977 30.771717757834757 9.72194901068408 0 0 0
1249 90 1 0.0 22.987800201730863 26.285485268769 8.483193281527683 0 0 0
5372 362 1 0.0 31.296229043383732 26.861646140798587 8.033073827769961 0 0 0
2078 149 1 0.0 15.468836007336924 32.1011211481595 13.011735463875382 0 0 0
3609 257 1 0.0 31.963010112502673 32.36713198966135 5.7010099053917385 0 0 0
4123 287 2 0.0 24.62521475179557 30.95902083508257 3.8943483743172456 1 0 0
3623 258 1 0.0 31.03522632390953 32.00049452841214 11.868270762244576 0 0 0
706 51 1 0.0 32.31618037814126 27.28753206021479 12.637103065087496 0 0 0
1254 90 2 0.0 23.55357435015164 24.71021412471021 9.96709223586152 0 0 0
907 65 5 0.0 23.74810788122378 32.36893354689834 10.255602275684026 0 0 0
3738 264 4 0.0 30.7185328385821 23.23517526683098 13.234413874008002 0 0 0
3629 258 2 0.0 31.2712130677598 30.944848805404433 11.476224722977411 0 0 0
2793 200 2 0.0 24.111542739986305 24.077757538493866 12.292862361156415 0 0 0
3638 258 7 0.0 31.219387301952953 32.179451487598236 8.867099737500013 0 0 0
3952 277 2 0.0 28.121284516817013 24.85023900298838 13.372180405566578 0 0 0
2799 200 6 0.0 23.275974991522915 25.630342354859017 13.644191748632146 0 0 0
703 51 1 0.0 32.26908739342186 26.387792582310023 11.51073834080203 0 0 0
1881 135 1 0.0 26.45692583351198 25.902120831460458 6.132643818123308 0 1 0
5381 362 3 0.0 31.567653964534642 23.21297444463413 6.985869002683196 0 0 0
1880 135 1 0.0 27.78943058302905 26.17830081581611 5.9054021196040685 0 1 0
3962 277 9 0.0 28.077620832059868 24.052813287836322 11.982403754306931 0 0 0
1877 135 1 0.0 28.68868688144649 25.157577259908674 5.541016402674016 0 1 0
3961 277 7 0.0 27.80375285757511 24.18704080756829 10.992234164715141 0 0 0
1258 90 2 0.0 23.598559684411093 29.61545608122295 8.786704461659495 0 0 0
1259 90 6 0.0 24.933341732229174 29.99906188628246 10.570622285029229 0 0 0
1257 90 5 0.0 24.8362650935257 29.080929554272068 10.979463239823252 0 0 0
3626 258 1 0.0 30.6533467739559 31.998084482429892 13.247781557513987 0 0 0
1251 90 1 0.0 23.636936352269128 28.522452095682848 8.903001809990496 0 0 0
3948 277 1 0.0 27.87546667832395 27.77143945716351 11.625993233983605 0 0 0
1879 135 1 0.0 26.79004123862833 23.601509014024437 5.643323982184743 0 1 0
3619 257 4 0.0 29.85266243232065 31.867237059449604 4.797299652509818 0 0 0
1250 90 1 0.0 24.246928992031563 28.101448905930013 10.115335209645227 0 0 0
3957 277 12 0.0 27.870039299682166 25.48841857422801 10.704716055732856 0 0 0
1882 135 1 0.0 25.936033992347458 24.614839954354455 5.983977051536922 0 1 0
4379 302 2 0.0 25.78585743823641 32.0274643274506 5.771419733010286 0 0 0
4380 302 3 0.0 27.237161654423932 31.458115025949812 7.952404285518696 0 0 0
3946 277 1 0.0 28.064442664709798 25.932259729842702 13.204109505537744 0 0 0
1248 90 1 0.0 23.63813122610684 25.769067111439142 9.638698914507817 0 0 0
1247 90 1 0.0 24.285410910893596 26.72995443455252 10.44696942829365 0 0 0
1253 90 2 0.0 24.846715124083715 26.40078638321632 11.3731402880174 0 0 0
5382 362 3 0.0 30.37980513455994 27.723885945658267 8.88664488446869 0 0 0
3953 277 2 0.0 27.6780314973523 28.178308309201647 10.619064272845723 0 0 0
1878 135 1 0.0 28.206713838365456 23.808374498705902 5.437681247366508 0 1 0
3956 277 3 0.0 27.74599243170515 30.116468969610775 12.384360327189606 0 0 0
1883 135 2 0.0 29.720600460350944 25.32942869017318 5.322857031303885 0 1 0
5383 362 4 0.0 30.835777294005606 28.582416371134748 9.693053949603131 0 0 0
710 51 5 0.0 31.168817144158947 27.729685986022922 13.295488209091607 0 0 0
4384 302 4 0.0 27.90749086843222 31.24788404716096 8.924763334704569 0 0 0
1887 135 5 0.0 28.230413223411684 27.497460444856323 6.068596828817334 0 1 0
3960 277 4 0.0 27.339052458438346 30.961916229320924 13.059383160181385 0 0 0
3951 277 1 0.0 27.84642609993753 28.69357161025487 12.72895696959019 0 0 0
2787 200 1 0.0 24.813120685645583 23.736882495984233 13.038432104556989 0 0 0
1889 135 6 0.0 27.49497425698562 28.071798864029862 6.409178468554216 0 1 0
709 51 2 0.0 31.343855327276433 26.04174666431578 11.099776782342717 0 0 0
3615 257 3 0.0 30.791000382372662 31.52866695078822 5.555407175398398 0 0 0
1884 135 2 0.0 28.805641129493726 22.928351401628607 5.122627430950361 0 1 0
5378 362 2 0.0 30.115242119651935 25.05750168611189 8.222846590537738 0 0 0
5373 362 1 0.0 30.986649436784152 25.487844052908194 7.767947302644804 0 0 0
3958 277 4 0.0 27.95164355578719 25.83155620385031 9.55941849729117 0 0 0
2459 176 2 0.0 20.77277006896746 32.24305101661324 -1.3240985623787584 0 0 0
2795 200 2 0.0 27.17161348690674 21.39885995451843 13.741864872544285 0 0 0
1787 128 2 0.0 18.946718758605634 22.791559268684086 17.832341165120404 0 0 0
1792 128 6 0.0 20.8190182307872 22.595128183366818 19.147051035608513 0 0 0
629 45 6 0.0 22.429068919092312 21.457082319860703 16.164097415605184 0 0 0
627 45 5 0.0 22.409732238702734 21.16540694954631 17.166288053459244 0 0 0
628 45 2 0.0 22.749041196164978 20.910536589922433 19.813004883535257 0 0 0
623 45 2 0.0 24.658400912642122 20.242708223676708 15.969594541207837 0 0 0
620 45 1 0.0 23.568236400980084 20.570121431377142 17.845314214902054 0 0 0
621 45 1 0.0 23.633296757964942 20.559801020605008 19.231060393845333 0 0 0
622 45 1 0.0 24.791471764907122 20.071833739738832 19.859293597298205 0 0 0
617 45 1 0.0 24.728939690860578 20.181310218363517 17.089611466556484 0 0 0
618 45 1 0.0 25.834003699477538 19.619643464676898 17.756475986209804 0 0 0
3732 264 2 0.0 30.02957218231979 19.421462841228575 17.906340973709774 0 0 0
3730 264 1 0.0 30.778879490014663 19.28110927105311 15.886146533505359 0 0 0
3741 264 9 0.0 29.03032190938571 20.587873965334417 19.08632817693593 0 0 0
3727 264 1 0.0 30.31786037483547 19.97529329170492 17.043832480751373 0 0 0
619 45 1 0.0 25.89228284601267 19.592542129697392 19.141401600232776 0 0 0
625 45 2 0.0 26.801554092742933 19.211551308855032 19.679931051625577 0 0 0
624 45 2 0.0 26.66989154415912 19.22123120850573 17.150469456739195 0 0 0
2800 200 6 0.0 27.372081959107152 22.906703705924492 17.050477546597737 0 0 0
3725 264 1 0.0 30.319932795240128 22.04634328048492 15.790506393232134 0 0 0
3726 264 1 0.0 30.174856113784028 21.39923228858154 17.02415239345361 0 0 0
3728 264 1 0.0 30.795667317786254 21.330263177465827 14.665256586791125 0 0 0
3736 264 12 0.0 29.673345816053722 22.18266098209491 18.23100012178191 0 0 0
3740 264 7 0.0 29.480216656450015 21.504396932973243 19.344874226408084 0 0 0
2789 200 1 0.0 26.406766826645793 22.15203189547685 13.934544590820613 0 0 0
5739 386 2 0.0 3.832369229189462 32.44681968604006 28.54332283422735 0 0 0
2796 200 5 0.0 27.176170700889127 22.234855463531897 16.28033271132093 0 0 0
2792 200 1 0.0 26.349333083599603 22.787915526742715 15.209846134276715 0 0 0
3739 264 4 0.0 30.605088343548267 17.051113479388047 16.580185876720254 0 0 0
3735 264 3 0.0 30.912590089820494 17.867114025569215 15.786531734138348 0 0 0
626 45 5 0.0 24.958381427241072 20.045854935864632 21.244396471525924 0 0 0
630 45 6 0.0 24.319093700982364 20.641896148795638 21.79937642407483 0 0 0
3729 264 1 0.0 30.906088534517448 19.925939960351347 14.723931955444115 0 0 0
3731 264 2 0.0 30.0496366899444 23.11612867263268 15.722683172662407 0 0 0
5148 347 4 0.0 27.117596679953984 22.932137665016654 20.877773608937122 0 0 0
5143 347 2 0.0 28.75182118293516 22.963183014621947 22.69360046821658 0 0 0
5430 365 4 0.0 28.095612432006863 20.66016988818883 22.6875663315605 0 0 0
5426 365 3 0.0 29.056793037285008 19.984675939172064 22.47507880867726 0 0 0
5424 365 2 0.0 31.64217088092114 18.92123201041939 22.397235435207765 0 0 0
4045 282 4 0.0 9.41941637130112 31.846649163689122 23.045615708613397 0 0 0
2074 149 1 0.0 13.427442487032229 32.30293588568316 14.325162897102356 0 0 0
2290 164 2 0.0 9.805123167651928 32.27328548326459 14.656907423226226 0 0 0
2080 149 2 0.0 12.311780737305634 32.19287047673634 14.349275346348538 0 0 0
2284 164 1 0.0 9.000956289377434 32.31206070906538 15.455949331964518 0 0 0
2283 164 1 0.0 8.598329110130642 31.114755875172385 16.056221382063434 0 0 0
3648 259 2 0.0 12.647211018845129 29.81095750139224 16.01055797073343 0 0 0
3644 259 1 0.0 13.22600049219711 29.894753191276493 16.906013109561297 0 0 0
3643 259 1 0.0 12.637441535170751 30.71620911800723 17.92160506372015 0 0 0
3649 259 3 0.0 11.141296927950329 31.011397435237466 17.984833815625365 0 0 0
2286 164 1 0.0 7.652831910090994 31.225524552011617 17.12309474483953 0 0 0
6101 410 3 0.0 11.439526144983647 27.778804997203995 22.686915310317676 0 0 0
6105 410 4 0.0 11.601252139949098 27.921931714740428 21.485166231141744 0 0 0
3672 260 7 0.0 32.37048314832666 23.757959395182624 19.79955445774449 0 1 0
2295 164 6 0.0 7.811917203184334 29.198096696121745 17.692103970736056 0 0 0
2289 164 2 0.0 8.96162608807372 30.121659799908663 15.788270585258253 0 0 0
2293 164 5 0.0 7.180356242319123 30.007887728241904 17.766254834659183 0 0 0
5294 356 4 0.0 21.865384289058223 32.45798503445149 31.967188908343694 0 0 0
3640 259 1 0.0 13.453933544019456 31.093615666578962 18.95714214795518 0 0 0
3646 259 2 0.0 13.100009359588219 31.80136429706765 19.725634613591055 0 0 0
6099 410 2 0.0 13.579749087573086 29.343698825473957 22.563299323043633 0 0 0
3653 259 4 0.0 10.679356775286081 31.68690389944457 18.889093611746596 0 0 0
1788 128 5 0.0 20.735298454830748 23.541435580378263 19.55745975853501 0 0 0
3945 276 9 0.0 16.549257076223885 24.5215276075857 21.440336290901726 0 0 0
3935 276 2 0.0 17.54479643188769 23.904496563048582 22.59636034668283 0 0 0
3944 276 7 0.0 15.836168003297589 25.178882859167523 21.29584751250643 0 0 0
6524 438 4 0.0 22.66004326051447 25.666211289257532 17.64595294818548 0 0 0
6520 438 3 0.0 22.32833070932642 26.79264072524197 17.342172716351985 0 0 0
6517 438 2 0.0 20.80166403186722 25.14133960677382 15.781325287434749 0 0 0
1786 128 2 0.0 17.129312848660174 24.30489261300928 16.814843565253486 0 0 0
1781 128 1 0.0 18.831511423021713 23.769737373908328 18.086754268972346 0 0 0
1784 128 1 0.0 19.682410628123943 24.33319140612566 19.029691121529954 0 0 0
1780 128 1 0.0 17.818264103951655 24.616274018998475 17.530224982541117 0 0 0
1783 128 1 0.0 19.35110364832722 25.519437320844137 19.616507975717933 0 0 0
1790 128 2 0.0 19.99028228385357 25.922079415299557 20.396661400985593 0 0 0
1779 128 1 0.0 17.4498540755582 25.837485266043533 18.166892027927734 0 0 0
1782 128 1 0.0 18.229414431399444 26.25700272695299 19.2005457659841 0 0 0
1791 128 6 0.0 18.680907929233275 28.152168760009342 19.654995904892605 0 0 0
3654 259 4 0.0 14.607798710455956 27.462204013515414 15.575185219143112 0 0 0
3650 259 3 0.0 15.13809990072521 28.504930103004206 15.949203312587338 0 0 0
3645 259 1 0.0 14.523464441063227 29.471889682564665 16.923769317412432 0 0 0
1785 128 2 0.0 16.658536459396853 26.459198515100496 17.77419017536767 0 0 0
1789 128 5 0.0 17.920153114425403 27.530299617377842 19.81665927146187 0 0 0
6513 438 1 0.0 18.930276613139995 27.767257835907703 15.025145097186462 0 0 0
6511 438 1 0.0 20.48509588823381 26.14837526492614 15.737447058880766 0 0 0
3641 259 1 0.0 14.820003043646631 30.699790662947024 19.06296871710916 0 0 0
3642 259 1 0.0 15.287357261710925 29.86584723549442 18.021080337697562 0 0 0
6515 438 1 0.0 20.486979285747996 28.426923254101222 16.72749307368255 0 0 0
6516 438 1 0.0 19.430920343052247 28.743686726366708 15.920271947546155 0 0 0
3647 259 2 0.0 16.3327708411263 29.453036632835037 18.124070477683038 0 0 0
3651 259 12 0.0 15.613661221421225 31.150543849357245 20.27166653835486 0 0 0
3652 259 4 0.0 16.67727031895232 30.624841594419845 20.427047516571783 0 0 0
6521 438 3 0.0 18.94919723401292 30.119394567505424 15.916905118391448 0 0 0
6525 438 4 0.0 18.445260702871455 30.582688666889787 14.895596251789721 0 0 0
6519 438 2 0.0 21.033405627691902 29.231117721205766 17.32565331058418 0 0 0
6514 438 1 0.0 21.075962786317497 27.144426171881822 16.599927551814925 0 0 0
3529 252 2 0.0 22.241189085468694 26.281841459678716 20.406828428433577 0 0 0
3941 276 4 0.0 14.567337191761677 26.439540438014625 22.550932832939896 0 0 0
3535 252 4 0.0 20.656573928734133 28.537335597522762 19.96308241746674 0 0 0
3525 252 1 0.0 23.00443804636841 26.772584187101284 20.956314514775386 0 0 0
3531 252 3 0.0 21.32487615662072 28.600124902604623 21.002641364441207 0 0 0
3526 252 1 0.0 22.729731515743016 28.120968787378686 21.253227096503092 0 0 0
6512 438 1 0.0 19.343362525347157 26.434054369071905 15.037733257115736 0 0 0
3940 276 12 0.0 15.586663060644042 25.751324622101922 22.5148659998056 0 0 0
6518 438 2 0.0 18.036391446059554 28.111081728990648 14.515402634413583 0 0 0
3655 259 7 0.0 15.12703812843083 32.18907381573133 21.03587908531286 0 0 0
6373 428 4 0.0 19.10767569608573 32.390344950250736 18.736456190074385 0 0 0
6449 433 4 0.0 22.62591189934032 31.12844614884319 19.530237685480692 0 0 0
3656 259 9 0.0 14.183865947849544 32.29509717923418 20.7146692409941 0 0 0
6522 438 3 0.0 18.612935668829127 25.33399796009664 14.352742811577523 0 0 0
6445 433 3 0.0 22.411533851316772 31.629953676518372 18.48391049465192 0 0 0
3737 264 4 0.0 29.707494737006172 23.400076358237932 18.307840698892694 0 0 0
2915 209 1 0.0 26.41455758516803 30.64546182344963 19.32796002367015 0 0 0
714 51 6 0.0 31.279037212677366 28.552577274101857 13.920146670728036 0 0 0
3534 252 4 0.0 23.73228691122478 23.980131500898135 20.352635689344005 0 0 0
3530 252 3 0.0 24.230163166402086 24.66504866772548 21.19399674849622 0 0 0
3524 252 1 0.0 24.135801359354794 26.11679059407713 21.46011943537532 0 0 0
2923 209 5 0.0 27.930550990724345 31.799616402227407 15.607652687716147 0 0 0
2926 209 6 0.0 27.467820702401983 28.285754320874187 20.13067801184485 0 0 0
6448 433 4 0.0 25.210912549062858 27.614895875257627 16.426629542582923 0 0 0
6439 433 1 0.0 23.110754355795102 31.35825591203967 17.143092344574168 0 0 0
3527 252 2 0.0 25.83869650466847 26.33195001324346 22.73068661819281 0 0 0
2791 200 1 0.0 25.46570181246029 23.915753550141947 15.3956548875111 0 0 0
6447 433 3 0.0 25.090213075845252 28.47232188622188 15.583211180902309 0 0 0
6437 433 1 0.0 24.39229324968393 29.806531120129993 15.783218577260621 0 0 0
2797 200 5 0.0 23.786478970305563 25.3646378630106 14.465642818061864 0 0 0
2790 200 1 0.0 24.6939018933311 24.328347397297662 14.305414891276207 0 0 0
6442 433 2 0.0 23.66063330101201 29.408049001544363 17.798146927786583 0 0 0
1768 127 1 0.0 30.92732179011489 30.85807532677864 19.74401496788791 0 0 0
1777 127 6 0.0 30.041306168191355 28.976440896704993 19.43482319103753 0 0 0
1775 127 5 0.0 30.84298477406986 29.547844060336153 19.21726619848698 0 0 0
2798 200 2 0.0 25.480523151240288 24.484643572753036 16.33460113476633 0 0 0
5138 347 1 0.0 28.934064601640376 24.060669010209363 22.7018398611375 0 0 0
5147 347 12 0.0 27.399730498188234 24.099545660428298 20.748165344306678 0 0 0
5137 347 1 0.0 28.355782497209244 24.83206620253671 21.621934351344052 0 0 0
3521 252 1 0.0 25.006344785612008 26.789811555735753 22.238728064038057 0 0 0
5136 347 1 0.0 28.66568162734387 26.226036235607918 21.540221351121 0 0 0
5142 347 2 0.0 28.192839862185167 26.774437740995445 20.80504089008444 0 0 0
3522 252 1 0.0 24.79894567737941 28.19998092184127 22.43998668719241 0 0 0
3523 252 1 0.0 23.6864860746493 28.900334186904264 21.92639236788462 0 0 0
5139 347 1 0.0 29.706659774697243 26.81310273947676 22.373021215827716 0 0 0
3528 252 2 0.0 23.679157729602455 29.966034925085474 22.119593179473963 0 0 0
5145 347 3 0.0 30.22613351457843 28.14070931557447 22.079205528804447 0 0 0
1351 97 2 0.0 31.083762816799776 25.67039953953903 15.254289653596336 0 0 0