LAMMPS data file via write_data, version 29 Oct 2020, timestep = 1202

6690 atoms
7187 bonds
11474 angles
20152 dihedrals
0 impropers

14 atom types
18 bond types
23 angle types
42 dihedral types

11.848023 53.151977 xlo xhi
11.848023 53.151977 ylo yhi
11.848023 53.151977 zlo zhi

Masses

 1 12.01
 2 1.008
 3 12.01
 4 16
 5 14.01
 6 1.008
 7 16
 8 14.01
 9 1.008
 10 12.01
 11 14.01
 12 12.01
 13 1.008
 14 16

Pair Coeffs

 1 0.086 3.39967
 2 0.015 2.59964
 3 0.086 3.39967
 4 0.21 2.95992
 5 0.17 3.25
 6 0.0157 1.06908
 7 0.2104 3.06647
 8 0.17 3.25
 9 0 0
 10 0.086 3.39967
 11 0.17 3.25
 12 0.086 3.39967
 13 0.0157 1.06908
 14 0.2104 3.0664734

Atoms

 1 1 1 0.0 14.86814104829385 17.762485830305327 39.61065608054519
 2 1 1 0.0 15.385610573288632 18.448426718774744 38.50287957506815
 3 1 1 0.0 14.873168499396252 19.707096518571 38.14880052076093
 4 1 1 0.0 13.855876987814542 18.352984185604353 40.387835714017605
 5 1 1 0.0 13.335596690186668 19.606522321241716 40.02358732531236
 6 1 1 0.0 13.834742882315654 20.289083578315307 38.902547697746144
 7 1 2 0.0 15.277655976936895 16.79315525142041 39.881123889146714
 8 1 2 0.0 16.192309250040584 18.007947573985877 37.92494395022514
 9 1 2 0.0 15.30753965272365 20.234298327005405 37.30525052003714
 10 1 11 0.0 13.331341249631503 21.585228252067644 38.611950850524046
 11 1 11 0.0 13.395509071282474 17.7528947916375 41.58432844140007
 12 1 2 0.0 12.562630791069854 20.067002819836393 40.63368440980648
 13 1 6 0.0 12.423955261735516 17.93321030744125 41.80656449859557
 14 1 6 0.0 13.085922817810586 22.148148523753484 39.41742222951245
 15 1 1 0.0 23.44774459942437 10.2279821424111 41.214088368673416
 16 1 1 0.0 24.152196885109092 9.37609935896298 40.348944649671296
 17 1 1 0.0 25.523540656775488 9.1503770508744 40.54201250474701
 18 1 1 0.0 24.09288034673892 10.8192354379704 42.311107427149686
 19 1 1 0.0 25.46471048681814 10.5823620773818 42.504635972304406
 20 1 1 0.0 26.18984453529581 9.77733267875496 41.60681622065751
 21 1 2 0.0 22.400261773861374 10.4282906693022 41.03186030865575
 22 1 2 0.0 23.63703623991965 8.89868899877253 39.52408174260067
 23 1 2 0.0 26.068789306337383 8.50866546489694 39.85540533196738
 24 1 11 0.0 27.58713054167724 9.60283941162256 41.767821635645156
 25 1 11 0.0 23.371343387474596 11.6957773445418 43.16598513274225
 26 1 2 0.0 25.97450559153429 11.0596550103761 43.33175292358849
 27 1 6 0.0 22.72467846016309 12.322996883256074 42.70334640218094
 28 1 6 0.0 27.88250617088109 8.68520117071663 42.07580256419747
 29 1 1 0.0 31.732384525712657 17.852329680198224 38.0813751352732
 30 1 1 0.0 32.82697943777995 17.35720763768528 38.80637275185213
 31 1 1 0.0 34.0889944200684 17.952706924825375 38.66097606376145
 32 1 1 0.0 31.894655499775368 18.94231165459265 37.20577722259532
 33 1 1 0.0 33.166282468301354 19.509679710465534 37.03122357895241
 34 1 1 0.0 34.25470837174177 19.044452255985096 37.79068256133912
 35 1 2 0.0 30.75642215884972 17.39759215206895 38.21014492663604
 36 1 2 0.0 32.695309531001136 16.52005616351437 39.48546506209043
 37 1 2 0.0 34.92581149614227 17.59096650895936 39.25129748577895
 38 1 11 0.0 35.48578617231829 19.74117794366391 37.77221730969797
 39 1 11 0.0 30.777547716928424 19.52336664068586 36.55597408300101
 40 1 2 0.0 33.290550335260896 20.368236660395528 36.377251104546495
 41 1 6 0.0 30.872044477954223 19.69732570460092 35.56258099301361
 42 1 6 0.0 36.279223912082806 19.192202611928263 37.46411679337812
 43 1 1 0.0 48.693222235775835 54.9361568013 25.847329819637547
 44 1 1 0.0 48.81738935003661 56.3165414478328 25.617446903452343
 45 1 1 0.0 47.94240533864911 57.218989382519 26.24335561568183
 46 1 1 0.0 47.69693096547958 54.4457795292979 26.709557683157712
 47 1 1 0.0 46.806844156769834 55.3594875714477 27.311143040905684
 48 1 1 0.0 46.9247197392242 56.7384231473667 27.08793563143521
 49 1 2 0.0 49.37649678992817 54.24768515089 25.35761302636058
 50 1 2 0.0 49.58932197975717 56.6855054489956 24.948950502079406
 51 1 2 0.0 48.03701019989296 58.2830327835565 26.047152908586938
 52 1 11 0.0 45.97189436422556 57.6124261729057 27.677231755758793
 53 1 11 0.0 47.610595400165344 53.042035933597205 26.93808102544747
 54 1 2 0.0 45.99796222430947 55.0135929406049 27.940213169488423
 55 1 6 0.0 48.01846904809274 52.45771795196882 26.21826829007305
 56 1 6 0.0 45.96005916830127 57.6281275499449 28.689946764566717
 57 1 1 0.0 30.3898545890456 23.771496207781038 55.87278804346483
 58 1 1 0.0 31.170225848880527 22.774094863461528 55.2697800391953
 59 1 1 0.0 30.550777118598575 21.719951800146752 54.58104545101744
 60 1 1 0.0 28.98613922334017 23.71760687496047 55.79198688238474
 61 1 1 0.0 28.368931090466234 22.68135769592344 55.06673764302253
 62 1 1 0.0 29.149778729516648 21.675514093282906 54.464970029896854
 63 1 2 0.0 30.875753011079833 24.567110781589786 56.430701021730385
 64 1 2 0.0 32.252500602548125 22.806139091488923 55.35516085492549
 65 1 2 0.0 31.159079860629895 20.928042177247526 54.1527645298157
 66 1 11 0.0 28.526057879725432 20.541068725056007 53.88547871018838
 67 1 11 0.0 28.210308564144555 24.669453752115466 56.50186413281697
 68 1 2 0.0 27.285563597979564 22.63010208233008 55.01177535322879
 69 1 6 0.0 27.653314988341158 24.315075159067685 57.270073056003945
 70 1 6 0.0 28.2878035950516 19.81199835619122 54.54703269762863
 71 1 1 0.0 43.213444467873984 43.920520736827505 47.53082975565065
 72 1 1 0.0 2.40147068307743 44.559472783081866 48.680741255883625
 73 1 1 0.0 3.51921582804641 45.403025776636085 48.6004481991334
 74 1 1 0.0 43.822563126641164 44.136572819339456 46.27907850373138
 75 1 1 0.0 3.66003605176461 44.96036149966301 46.21711049883449
 76 1 1 0.0 4.16587789406695 45.593090168363574 47.368411895210556
 77 1 2 0.0 42.37718141923124 43.23794431247781 47.63044589096076
 78 1 2 0.0 1.93326564356929 44.37908233608308 49.6425388755147
 79 1 2 0.0 3.91484214740613 45.859253800172866 49.503473929734355
 80 1 11 0.0 5.40181324069781 46.28897208044624 47.30955505884746
 81 1 11 0.0 43.43023510644264 43.45300617996937 45.08935275320704
 82 1 2 0.0 4.19011494833181 45.06577846892086 45.27647511590689
 83 1 6 0.0 44.20734856911327 43.286646066901156 44.461251922986285
 84 1 6 0.0 6.19794736426974 45.72756008131267 47.03218917674032
 85 1 1 0.0 13.887699330835664 28.380817912673127 60.1617639087408
 86 1 1 0.0 15.139293739349682 28.645676508910192 60.74419677691045
 87 1 1 0.0 16.07550413680175 29.449221174688784 60.07239601646377
 88 1 1 0.0 13.563005656810459 28.931733821947923 58.90749605316883
 89 1 1 0.0 14.504189972498224 29.72810327484464 58.23702855887475
 90 1 1 0.0 15.752422998880919 29.998478281929017 58.820535818380606
 91 1 2 0.0 13.159666959624552 27.786231764081922 60.706181464131994
 92 1 2 0.0 15.37943670877413 28.23640351387372 61.721190997244136
 93 1 2 0.0 17.02806808203291 29.67867004591947 60.54203955553844
 94 1 11 0.0 16.591241279927008 30.957547709878806 58.211695830925855
 95 1 11 0.0 12.25970527654603 28.82317048811818 58.36239776712263
 96 1 2 0.0 14.239139011007586 30.19483198693899 57.29171399222166
 97 1 6 0.0 11.888547984136375 29.676812076375843 57.96422671997452
 98 1 6 0.0 16.348551076099344 31.919402930363642 58.41356600621744
 99 1 1 0.0 17.694981663554152 17.87078850764068 34.70341656105169
 100 1 1 0.0 18.86431865746234 18.517076737011323 34.278392219628614
 101 1 1 0.0 18.829832488430576 19.880143942483798 33.95345645131971
 102 1 1 0.0 16.48380179450146 18.582406233598675 34.79988232255337
 103 1 1 0.0 16.461119122308897 19.951247794901498 34.48766914026181
 104 1 1 0.0 17.63101170511543 20.604462012091613 34.05836859619115
 105 1 2 0.0 17.744587677134636 16.82586999619753 34.98141623294457
 106 1 2 0.0 19.796101820745342 17.96392283848961 34.20657799367973
 107 1 2 0.0 19.73782937472898 20.374780601935004 33.62573755667618
 108 1 11 0.0 17.623402105499743 21.967199786513405 33.67088053332592
 109 1 11 0.0 15.303553211399635 17.979300420716793 35.30569643144414
 110 1 2 0.0 15.530431303344633 20.499641341662887 34.579946372161835
 111 1 6 0.0 14.759945268375965 18.564363684261618 35.92865863278456
 112 1 6 0.0 18.221858158378062 22.19035077170374 32.88445993466947
 113 1 1 0.0 6.22816012450561 43.93217663119971 24.94898922123083
 114 1 1 0.0 6.23873782642921 44.860386200541626 23.898763546390807
 115 1 1 0.0 7.44969491352887 45.43148990483248 23.48142387171487
 116 1 1 0.0 7.4313983285086 43.574448533294444 25.580389148544576
 117 1 1 0.0 8.64707420794019 44.13512978800735 25.15273081382726
 118 1 1 0.0 8.65566104310956 45.09720841671484 24.123232146881037
 119 1 2 0.0 5.28841878638198 43.49986807307322 25.279689040702387
 120 1 2 0.0 5.31114364637435 45.1472871494152 23.414466446507596
 121 1 2 0.0 7.44420890127839 46.169407188982234 22.68350626154184
 122 1 11 0.0 9.82342544601803 45.80628220348404 23.736649284922766
 123 1 11 0.0 7.41202263463006 42.69585878749012 26.68739986055802
 124 1 2 0.0 9.56709771539938 43.85081835454535 25.6542438456917
 125 1 6 0.0 7.87968955631172 41.80578974442223 26.566408599637246
 126 1 6 0.0 9.7595361845111 46.23481863885708 22.821260566614978
 127 1 1 0.0 30.177637565974205 26.618955659210435 23.678838073636413
 128 1 1 0.0 29.645704247781715 25.47927726186715 23.04524509979331
 129 1 1 0.0 29.98256543553422 24.18619838278816 23.487702892631752
 130 1 1 0.0 31.054260585806126 26.463948887804246 24.77092022942217
 131 1 1 0.0 31.368188854802444 25.172534107783342 25.212311041558195
 132 1 1 0.0 30.863617347364873 24.03175735619114 24.570567172648488
 133 1 2 0.0 29.934408840877595 27.601702101694148 23.288842761331534
 134 1 2 0.0 28.98733077397918 25.59966998945467 22.190216782651117
 135 1 2 0.0 29.58220073309396 23.315034448549348 22.976522557097226
 136 1 11 0.0 31.297327178553918 22.758029850604625 25.02339060554649
 137 1 11 0.0 31.770238623770318 27.513519860957697 25.404795152391316
 138 1 2 0.0 32.055931121487816 25.0549101757361 26.042197197730967
 139 1 6 0.0 32.53454139727334 27.17465296337149 25.97517083032982
 140 1 6 0.0 30.64169548315909 22.258213565005317 25.611563434322097
 141 1 1 0.0 15.7050381145706 33.25981006239726 26.137257209268235
 142 1 1 0.0 16.169395119219732 34.446098825010786 25.553743865889583
 143 1 1 0.0 15.942290598662117 35.676582232639504 26.186121005725607
 144 1 1 0.0 14.99876177029153 33.301749835658825 27.35181761846587
 145 1 1 0.0 14.79129291138418 34.53375305931569 27.99520768114695
 146 1 1 0.0 15.258159725205273 35.7259987271035 27.41535219325497
 147 1 2 0.0 15.901035247648409 32.30968756076276 25.648610454749203
 148 1 2 0.0 16.718020542677202 34.41053183021308 24.61909369585251
 149 1 2 0.0 16.33296928751614 36.58084907612817 25.73407816307119
 150 1 11 0.0 15.086165402512211 36.94354483573908 28.122211709835614
 151 1 11 0.0 14.602675563899606 32.1035432518718 27.99323330061842
 152 1 2 0.0 14.283927240729575 34.56281930003828 28.95618595264784
 153 1 6 0.0 15.271930718480336 31.75181965615194 28.667166514994644
 154 1 6 0.0 15.099068782698376 36.863789981896296 29.13187029715088
 155 1 1 0.0 44.98482131711158 37.276044942037345 52.75503913561563
 156 1 1 0.0 44.873783186066355 38.644400553864806 53.03963471114047
 157 1 1 0.0 45.92724633034836 39.51366096386786 52.724568608302384
 158 1 1 0.0 46.13324705021578 36.77581180416747 52.112281836100586
 159 1 1 0.0 47.17723202198019 37.65298834678952 51.77714056774984
 160 1 1 0.0 47.08226215703944 39.016342558354324 52.09689797032244
 161 1 2 0.0 44.15913011740463 36.6188672640228 53.006933948837585
 162 1 2 0.0 43.973553029906796 39.02906661448505 53.509030107020884
 163 1 2 0.0 45.83969742567006 40.57193426611797 52.95461474951645
 164 1 11 0.0 48.13172674113388 39.89305376311539 51.745831630491594
 165 1 11 0.0 46.22429947057993 35.424968052305616 51.69845182001146
 166 1 2 0.0 48.05749474472987 37.27762086491504 51.26134371541953
 167 1 6 0.0 46.68993893903192 35.27969707977656 50.811107763451076
 168 1 6 0.0 48.324307623003286 39.98227182747496 50.75575333444512
 169 1 1 0.0 49.45397326699729 50.353964353777606 43.038310776920596
 170 1 1 0.0 50.279907813957195 51.289521606428735 42.391702733880564
 171 1 1 0.0 51.67613139366082 51.21150114565902 42.525996088859905
 172 1 1 0.0 50.017361720066226 49.331018992880246 43.821686633296295
 173 1 1 0.0 51.41146594873154 49.307786256656605 44.01219766879545
 174 1 1 0.0 52.24415325549779 50.21550985042708 43.33711117750427
 175 1 2 0.0 48.37823445977 50.41068373565493 42.904985102024156
 176 1 2 0.0 49.83758333036659 52.06465772147955 41.77281266267914
 177 1 2 0.0 52.31196577476589 51.92149868462112 42.004120779273265
 178 1 11 0.0 53.650802655016 50.09221510823048 43.459048715770315
 179 1 11 0.0 49.182964410189285 48.3056217162201 44.352896125089366
 180 1 2 0.0 51.86081380819822 48.537792845452365 44.63208697076714
 181 1 6 0.0 48.310680281856115 48.63038288607191 44.75274452917078
 182 1 6 0.0 54.1274418776619 49.62883899007376 42.69474960841689
 183 1 1 0.0 50.75586816767427 34.42840262854694 18.667471774193533
 184 1 1 0.0 51.1244910952158 33.23049269142428 19.29936080909685
 185 1 1 0.0 50.535591953436395 32.016259347577446 18.91155902171178
 186 1 1 0.0 49.79196295085319 34.42014168140028 17.64576094142148
 187 1 1 0.0 49.190639263252415 33.208238982205835 17.27457778281344
 188 1 1 0.0 49.56885943450727 32.006824043812365 17.890772343147347
 189 1 2 0.0 51.245895116385306 35.357090370144334 18.94367949800318
 190 1 2 0.0 51.890036306183724 33.24062378061062 20.06597712875642
 191 1 2 0.0 50.87773569194583 31.08845755362699 19.359141351590726
 192 1 11 0.0 49.094185530555656 30.817756216014626 17.298837673945727
 193 1 11 0.0 49.555704404224954 35.59812497645265 16.896200313670366
 194 1 2 0.0 48.49560078146736 33.1803532739306 16.4393695194268
 195 1 6 0.0 50.38026967961584 36.15006665563953 16.694965153459787
 196 1 6 0.0 48.86551451939756 30.91583379042436 16.31706895667073
 197 1 1 0.0 26.98775787532199 26.815426379918048 48.27743326658992
 198 1 1 0.0 25.783205525328835 26.44109564754426 48.894844045820726
 199 1 1 0.0 24.561803267821645 26.960121219589 48.43536917881703
 200 1 1 0.0 26.980674850127553 27.731829048850265 47.211883921994215
 201 1 1 0.0 25.751612380808204 28.228927331286066 46.74248192777742
 202 1 1 0.0 24.542035956091304 27.857400149600142 47.350116742067314
 203 1 2 0.0 27.921683921967464 26.392908407289198 48.6297949795619
 204 1 2 0.0 25.797407270004875 25.755703346231407 49.73710152492918
 205 1 2 0.0 23.645819095969255 26.687699871212082 48.94792014366199
 206 1 11 0.0 23.36640062752882 28.527823847215007 46.92401595117467
 207 1 11 0.0 28.190331003153382 28.192305558779527 46.622011179931555
 208 1 2 0.0 25.738106498055966 28.94903569005629 45.927712328235046
 209 1 6 0.0 28.79041412395765 28.75939045686307 47.20887684882577
 210 1 6 0.0 23.53770363229832 29.436584698428835 46.51205040264789
 211 1 1 0.0 32.68871044156151 49.47776412623227 12.32548159469064
 212 1 1 0.0 31.92885992398519 48.53790129036983 11.613663085784365
 213 1 1 0.0 31.067995805301695 47.66676143923024 12.297713489429876
 214 1 1 0.0 32.58646216179692 49.55846814701488 13.72421352024647
 215 1 1 0.0 31.711293870064253 48.68810853650647 14.410471422506474
 216 1 1 0.0 30.95600129524299 47.7292583405331 13.697266481084057
 217 1 2 0.0 33.37259737634398 50.13134549812786 11.790715498800157
 218 1 2 0.0 32.018579204846006 48.47422616876441 10.533248179469316
 219 1 2 0.0 30.504991606769945 46.92333682775499 11.739878677682851
 220 1 11 0.0 30.164149748938577 46.73844118733986 14.344078925428452
 221 1 11 0.0 33.4499959041899 50.450067171153286 14.415759544816344
 222 1 2 0.0 31.668965670344566 48.717919608526245 15.495434296793732
 223 1 6 0.0 34.43203904310185 50.378407172599516 14.177916740019464
 224 1 6 0.0 30.14142063914714 45.83724962703118 13.881971288197068
 225 1 1 0.0 8.8855954513599 35.470251231245676 41.690255044768406
 226 1 1 0.0 8.88041547489713 34.32792431564788 42.5001526221921
 227 1 1 0.0 9.29969802583499 34.41554619818935 43.8353823016685
 228 1 1 0.0 9.3227590516728 36.7003690347947 42.198486408177395
 229 1 1 0.0 9.73193478045079 36.78807605793102 43.54134025948801
 230 1 1 0.0 9.73082651463156 35.649489079256824 44.369642371675276
 231 1 2 0.0 8.56909717055854 35.399722492337766 40.66211280094491
 232 1 2 0.0 8.53751545348678 33.37888692595139 42.09822793788319
 233 1 2 0.0 9.23306819827799 33.52565240731477 44.45080640140299
 234 1 11 0.0 10.0352518292032 35.818136409549716 45.75110807730082
 235 1 11 0.0 9.40231532121926 37.823637329398046 41.3338889941227
 236 1 2 0.0 10.0337643031841 37.7486117605629 43.94407893989406
 237 1 6 0.0 8.5187641605828 38.20028171815656 41.012056403334974
 238 1 6 0.0 9.83831264613932 36.74315290972743 46.11362978383827
 239 1 1 0.0 57.3064506748132 40.7527620503447 45.52103895116493
 240 1 1 0.0 58.1216488762417 41.65801222708942 46.21260727206583
 241 1 1 0.0 58.5732612326135 42.823367314715 45.57924617232291
 242 1 1 0.0 56.9260795419044 41.01486449962446 44.190906254004034
 243 1 1 0.0 57.3492756982265 42.204184145364906 43.572829087477075
 244 1 1 0.0 58.1724229625041 43.11213630811564 44.26634374593496
 245 1 2 0.0 56.9712249018365 39.85299632900469 46.027302747528815
 246 1 2 0.0 58.3990556829792 41.45593695331679 47.24010254533051
 247 1 2 0.0 59.2048064510566 43.518675824708225 46.11964273982039
 248 1 11 0.0 58.5239953294599 44.35368381374942 43.68273088256293
 249 1 11 0.0 56.1049562606214 40.11049734330051 43.46870395553995
 250 1 2 0.0 57.0265266104456 42.4282911923349 42.559114564929196
 251 1 6 0.0 55.4283285687264 40.529659686482425 42.84244078139878
 252 1 6 0.0 58.2100139988278 45.18014731424996 44.176954440045236
 253 1 1 0.0 30.51244212643672 27.06422803140647 49.53647001509887
 254 1 1 0.0 29.62403771796439 28.113484156639775 49.82966824586862
 255 1 1 0.0 28.692547130172137 27.983222763684598 50.87527323297058
 256 1 1 0.0 30.499843557624963 25.89001764759423 50.30949268487029
 257 1 1 0.0 29.612445984510902 25.796091987476665 51.394548813748656
 258 1 1 0.0 28.67510253566655 26.807456964285652 51.64909653659784
 259 1 2 0.0 31.19785399583255 27.159371859573913 48.69987797674813
 260 1 2 0.0 29.625880833343032 29.00772541016973 49.21429796643508
 261 1 2 0.0 27.9567342409691 28.76522492747417 51.03206671432683
 262 1 11 0.0 27.637497248532668 26.471775182428267 52.550517637582814
 263 1 11 0.0 31.405068554659678 24.835543163366673 50.01370626729669
 264 1 2 0.0 29.59721345158491 24.900424373548994 52.009004436674545
 265 1 6 0.0 32.34541426425949 25.141017886293458 49.79417178638182
 266 1 6 0.0 27.53403644215416 25.47324296280205 52.68160226093062
 267 1 1 0.0 47.691903686738264 18.46140420435763 33.87766297959311
 268 1 1 0.0 46.78764515372105 18.635654931999188 34.93729092839065
 269 1 1 0.0 47.183150781819386 18.35726142428714 36.25320956129348
 270 1 1 0.0 49.004865811462295 18.01681707709433 34.125877191069684
 271 1 1 0.0 49.40960325604644 17.79248502407649 35.454600670909585
 272 1 1 0.0 48.49560652456159 17.93044973589726 36.51438907566682
 273 1 2 0.0 47.35120166967105 18.631295411911996 32.86430280015256
 274 1 2 0.0 45.77253010029969 18.96151809067803 34.736439694479614
 275 1 2 0.0 46.46713399442496 18.453763288777115 37.063437500406664
 276 1 11 0.0 48.89081225730427 17.59767162674642 37.83408586443817
 277 1 11 0.0 49.88530896673841 17.654121911825094 33.06879157587999
 278 1 2 0.0 50.41678804194008 17.445742858500036 35.66339690062772
 279 1 6 0.0 50.521054577956555 16.896179040932218 33.28578918460192
 280 1 6 0.0 49.543325178026365 18.245533160851885 38.25896209272436
 281 1 1 0.0 31.739834775078787 42.177443345383146 53.92783621941913
 282 1 1 0.0 32.255362674110316 43.43411885816049 53.57603236255722
 283 1 1 0.0 31.43427776010878 44.57129992437759 53.619923752740895
 284 1 1 0.0 30.403432508041806 42.059474523933915 54.35992772584025
 285 1 1 0.0 29.593973170166755 43.21067194022465 54.42004117651265
 286 1 1 0.0 30.099943890837967 44.46637256141003 54.038097737886616
 287 1 2 0.0 32.380050649802314 41.30597157217069 53.83853131375042
 288 1 2 0.0 33.28835134375797 43.52288959150986 53.255251485672076
 289 1 2 0.0 31.827734694807333 45.5338734397666 53.3197732010807
 290 1 11 0.0 29.29495790924102 45.63301666378967 54.108902430999954
 291 1 11 0.0 29.79764039920651 40.80679266590987 54.65086943002779
 292 1 2 0.0 28.56161282300649 43.124664073980334 54.74791574774847
 293 1 6 0.0 28.791053122051423 40.8001066107448 54.54152549645522
 294 1 6 0.0 29.662941004175988 46.38626007406417 54.6769670077669
 295 1 1 0.0 20.50773677914309 19.322773871527996 52.72453713610736
 296 1 1 0.0 21.488599472914014 19.88400228794122 51.89008825391387
 297 1 1 0.0 22.324046782205226 20.9074176078944 52.36891857030532
 298 1 1 0.0 20.365124535525776 19.784322639542427 54.04406238438155
 299 1 1 0.0 21.173485797101108 20.838190946397486 54.50415785120377
 300 1 1 0.0 22.168053490834723 21.390051299400437 53.68401774837558
 301 1 2 0.0 19.890169297078344 18.50658560386709 52.36004174153599
 302 1 2 0.0 21.607016651133016 19.52033693713842 50.87372385449334
 303 1 2 0.0 23.06283976031015 21.33871224779887 51.70138138827935
 304 1 11 0.0 22.88905109502808 22.502191189562964 54.189181473906984
 305 1 11 0.0 19.497230643467113 19.124402793121362 54.95197432573245
 306 1 2 0.0 21.050570975986936 21.208002265118175 55.51884307104945
 307 1 6 0.0 18.5067877719357 19.191437946738244 54.751074375088166
 308 1 6 0.0 22.359674421238005 23.083125509844358 54.82773585726016
 309 1 1 0.0 28.30920254437802 18.433752468710416 32.729189080820845
 310 1 1 0.0 27.635490295859086 19.081225694631854 31.680154329313392
 311 1 1 0.0 28.314447750879317 19.39770736110396 30.491581513909495
 312 1 1 0.0 29.66582488328066 18.095473112320505 32.589952808132075
 313 1 1 0.0 30.3420670794188 18.43276879243227 31.402875753382087
 314 1 1 0.0 29.677997921745266 19.087091165554195 30.34905074687072
 315 1 2 0.0 27.77270099082862 18.178983380751315 33.63914455344515
 316 1 2 0.0 26.58653334124412 19.341205220071046 31.789410230350654
 317 1 2 0.0 27.78710035431574 19.91468982824359 29.698216647602834
 318 1 11 0.0 30.408195402915098 19.536694832715682 29.21308469450162
 319 1 11 0.0 30.326503600010135 17.352967570220514 33.605475435999516
 320 1 2 0.0 31.395054895532464 18.192118168861608 31.302806538041537
 321 1 6 0.0 29.801311317601666 16.583459884252203 34.00290829141691
 322 1 6 0.0 30.27237606065665 20.51076317061154 28.970552729035404
 323 1 1 0.0 56.498281234196 49.98954339580065 38.22844583170997
 324 1 1 0.0 55.3668551122097 50.47162099913943 38.90529183417579
 325 1 1 0.0 54.5603729995926 49.591443835889194 39.64494011795677
 326 1 1 0.0 56.8275207177735 48.62516061247728 38.29755058866038
 327 1 1 0.0 55.998203371522 47.73916294436887 39.01000694845731
 328 1 1 0.0 54.8769119058044 48.22009768351367 39.70326415354791
 329 1 2 0.0 57.1440705095164 50.68150286392196 37.695097545892324
 330 1 2 0.0 55.1310490218288 51.53106726835766 38.881854905094755
 331 1 2 0.0 53.7160914935927 49.98548914135289 40.203993258512575
 332 1 11 0.0 54.167608102159 47.341864046180426 40.56075272375465
 333 1 11 0.0 58.044130930408 48.16289698039221 37.737251930808625
 334 1 2 0.0 56.2631413046035 46.687461232035076 39.081718759717255
 335 1 6 0.0 58.1371850372873 48.27883524145564 36.73535892617535
 336 1 6 0.0 54.7390440915211 46.78209745175931 41.18172877028421
 337 1 1 0.0 32.957760438104295 41.976879478652265 17.42314059245826
 338 1 1 0.0 34.112489307489746 41.302860115514214 17.82844717202367
 339 1 1 0.0 34.00092434991063 40.16770279313005 18.636688171101902
 340 1 1 0.0 31.68825940495971 41.53986188963643 17.828087228268668
 341 1 1 0.0 31.573346471950504 40.36442174563556 18.59972156370422
 342 1 1 0.0 32.73846721919183 39.659266962839595 18.98719074557744
 343 1 2 0.0 33.04507313529154 42.85943974882398 16.802313924209635
 344 1 2 0.0 35.08813781359017 41.65837008406353 17.515029083177406
 345 1 2 0.0 34.9035135011437 39.65585486039388 18.954140352820247
 346 1 11 0.0 32.71999618726962 38.38950237922464 19.62904100707796
 347 1 11 0.0 30.614944233872112 42.389403439080574 17.452934119523583
 348 1 2 0.0 30.593391444628008 40.0091415380041 18.891396407157004
 349 1 6 0.0 30.94446908874526 43.275688075868466 17.09391490139403
 350 1 6 0.0 33.55025073275165 37.83223429536376 19.469339742620317
 351 1 1 0.0 37.95109449334233 24.664763330707064 17.842231447307675
 352 1 1 0.0 38.245050880848446 23.810054242709153 18.91274372349156
 353 1 1 0.0 39.45823948457584 23.948542641100175 19.596542377958855
 354 1 1 0.0 38.828812043250814 25.6999395016759 17.48492970058976
 355 1 1 0.0 40.03688357196339 25.856516825633 18.195797429471636
 356 1 1 0.0 40.36950188340077 24.950092274521815 19.22041392061272
 357 1 2 0.0 37.03724455301131 24.52112203283791 17.27910603790327
 358 1 2 0.0 37.551914485661406 23.019896202878325 19.186540425723656
 359 1 2 0.0 39.71257126214409 23.242947193160905 20.38025936798252
 360 1 11 0.0 41.668140304915966 24.929620520825825 19.7850214623177
 361 1 11 0.0 38.434577332630965 26.53883262374918 16.40846035384513
 362 1 2 0.0 40.74157043553888 26.63579562121694 17.925140966448076
 363 1 6 0.0 37.43585947482425 26.555727543670372 16.242794358592523
 364 1 6 0.0 41.7495754260639 25.32816300248376 20.712638324133295
 365 1 1 0.0 44.38133367657814 33.962065519190844 38.94512525644603
 366 1 1 0.0 44.480317514506716 33.59489932326253 40.29503062131412
 367 1 1 0.0 43.35857578658881 33.09219766895002 40.96992137613061
 368 1 1 0.0 43.158272598334904 33.837769233765954 38.25950907038944
 369 1 1 0.0 42.03663946672537 33.333265489230264 38.940803426482226
 370 1 1 0.0 42.12799068811937 32.96718716116291 40.3010715439434
 371 1 2 0.0 45.262403269913776 34.32951808466152 38.43062490787262
 372 1 2 0.0 45.42526479625117 33.70600650493006 40.81676469925403
 373 1 2 0.0 43.438146242823755 32.83395077761643 42.02241778032787
 374 1 11 0.0 40.97326138062799 32.632059656284646 41.05792639536306
 375 1 11 0.0 43.048778653935685 34.18431901818076 36.88435408037799
 376 1 2 0.0 41.085681768241045 33.27495065669444 38.41899981372455
 377 1 6 0.0 42.48579839310365 33.56124201432025 36.31816071950996
 378 1 6 0.0 40.95531670213826 33.00334914280298 41.99990257436792
 379 1 1 0.0 16.144793562249472 30.061774718680482 51.05738089312359
 380 1 1 0.0 16.035438562267366 31.25286597231165 51.793764522514486
 381 1 1 0.0 17.187154367248933 31.9038618978943 52.26818804626962
 382 1 1 0.0 17.41116485674951 29.509010855837833 50.80748055662511
 383 1 1 0.0 18.560725737498153 30.16258314251939 51.29256442468162
 384 1 1 0.0 18.463472436661917 31.35527695119485 52.02543153572146
 385 1 2 0.0 15.250540795099004 29.574625805935522 50.68289608006828
 386 1 2 0.0 15.058398537123903 31.68623066159416 51.97880832074677
 387 1 2 0.0 17.07622940012351 32.8562605693935 52.77457114319724
 388 1 11 0.0 19.675867684729937 32.037431281519616 52.32610389053293
 389 1 11 0.0 17.551332407717528 28.29249130310783 50.08840516418219
 390 1 2 0.0 19.545395690198376 29.759312241519268 51.06866913183998
 391 1 6 0.0 17.159239319364897 28.256412225682812 49.155178320202786
 392 1 6 0.0 20.39432977957427 31.92504903691001 51.62095204038093
 393 1 1 0.0 35.93313251254371 47.24389643209626 45.921157695356456
 394 1 1 0.0 35.30833279887789 47.70860545490839 47.085362643446125
 395 1 1 0.0 34.73537028811814 46.79630678068593 47.9809395361264
 396 1 1 0.0 35.986942534217086 45.870060301425056 45.637663023479945
 397 1 1 0.0 35.39959945635549 44.956038321447615 46.54067695846579
 398 1 1 0.0 34.8079255218032 45.41438861780194 47.73084739465466
 399 1 2 0.0 36.40684997270757 47.95356521167024 45.250682480658405
 400 1 2 0.0 35.28699905366334 48.77225085338898 47.298111150763546
 401 1 2 0.0 34.287092489593086 47.16113198690185 48.89601970761342
 402 1 11 0.0 34.47335056098852 44.48459430849325 48.75157996857934
 403 1 11 0.0 36.79387401572878 45.4831367579755 44.53479594038509
 404 1 2 0.0 35.4856877537553 43.88613850655115 46.38951779713581
 405 1 6 0.0 37.410717930588014 46.21519126357171 44.20516948079038
 406 1 6 0.0 35.2076659925505 43.82566428132599 48.980928576803706
 407 1 1 0.0 60.2370596439844 43.30352236797774 51.29428203061432
 408 1 1 0.0 60.3231403669915 43.65677779306039 49.941909080940476
 409 1 1 0.0 60.4258689156552 42.65086757326985 48.97212375338739
 410 1 1 0.0 60.2285018332993 41.95361885634498 51.674335935555035
 411 1 1 0.0 60.4315800780394 40.95112781141989 50.70430725212124
 412 1 1 0.0 60.49843150517 41.29819748333368 49.340609801691855
 413 1 2 0.0 60.1222563491155 44.072954833450744 52.04607693331441
 414 1 2 0.0 60.2892334395421 44.70082151397236 49.64492790817133
 415 1 2 0.0 60.4533687298721 42.91787624200125 47.92417910616398
 416 1 11 0.0 60.62178719447 40.35086067781215 48.28987414068259
 417 1 11 0.0 59.9059899966963 41.637306584621975 53.01917251613287
 418 1 2 0.0 60.4685150930951 39.91089607014435 51.0110511485448
 419 1 6 0.0 60.4277038615867 42.15110915480694 53.71886788085736
 420 1 6 0.0 60.951006004512 40.750040225355725 47.41960964339512
 421 1 1 0.0 41.319274240310875 25.41470503965408 50.501827301556844
 422 1 1 0.0 42.669357152166334 25.132058753331464 50.231746891433176
 423 1 1 0.0 43.64689522248936 26.125801955210708 50.39176715501069
 424 1 1 0.0 40.941933426449914 26.695245112864182 50.94271896746408
 425 1 1 0.0 41.929583636151115 27.676988278057582 51.123720643432705
 426 1 1 0.0 43.279543388873975 27.403407461888712 50.842511253696735
 427 1 2 0.0 40.569535948185944 24.650477314059106 50.3289950358358
 428 1 2 0.0 42.958275023360514 24.151845247268152 49.87115048906479
 429 1 2 0.0 44.681305117124026 25.911835747360158 50.13707690319083
 430 1 11 0.0 44.23786501108403 28.446041439021393 50.85469398974544
 431 1 11 0.0 39.57529007953532 27.043796228972244 51.108891432267036
 432 1 2 0.0 41.63103853236395 28.68249354582916 51.40176225365282
 433 1 6 0.0 38.95850157759778 26.810681727017947 50.340158654290654