LAMMPS (29 Oct 2020)
OMP_NUM_THREADS environment is not set. Defaulting to 1 thread. (../comm.cpp:94)
  using 1 OpenMP thread(s) per MPI task
using multi-threaded neighbor list subroutines
using multi-threaded neighbor list subroutines
Reading data file ...
  orthogonal box = (11.246593 11.246593 1.2735400) to (53.753407 53.753407 64.665814)
  2 by 4 by 4 MPI processor grid
  reading atoms ...
  6481 atoms
  reading velocities ...
  6481 velocities
  scanning bonds ...
  3 = max bonds/atom
  scanning angles ...
  3 = max angles/atom
  scanning dihedrals ...
  12 = max dihedrals/atom
  reading bonds ...
  6874 bonds
  reading angles ...
  10699 angles
  reading dihedrals ...
  18775 dihedrals
Finding 1-2 1-3 1-4 neighbors ...
  special bond factors lj:    0.0      0.0      0.5     
  special bond factors coul:  0.0      0.0      0.83333333
     3 = max # of 1-2 neighbors
     6 = max # of 1-3 neighbors
    12 = max # of 1-4 neighbors
    14 = max # of special neighbors
  special bonds CPU = 0.009 seconds
  read_data CPU = 0.244 seconds
PPPM initialization ...
WARNING: System is not charge neutral, net charge = 0.0115 (../kspace.cpp:313)
  using 12-bit tables for long-range coulomb (../kspace.cpp:328)
WARNING: For better accuracy use 'pair_modify table 0' (../kspace.cpp:351)
  G vector (1/distance) = 0.31560827
  grid = 100 100 135
  stencil order = 5
  estimated absolute RMS force accuracy = 6.0001296e-06
  estimated relative force accuracy = 1.8069212e-08
  using double precision MKL FFT
  3d grid and FFT values/proc = 86258 50000
Last active /omp style is kspace_style pppm/omp
Neighbor list info ...
  update every 1 steps, delay 0 steps, check yes
  max neighbors/atom: 2000, page size: 100000
  master list distance cutoff = 14
  ghost atom cutoff = 14
  binsize = 7, bins = 7 7 10
  1 neighbor lists, perpetual/occasional/extra = 1 0 0
  (1) pair lj/cut/coul/long/omp, perpetual
      attributes: half, newton on, omp
      pair build: half/bin/newton/omp
      stencil: half/bin/3d/newton
      bin: standard
Setting up Verlet run ...
  Unit style    : real
  Current step  : 0
  Time step     : 1.0
WARNING: Inconsistent image flags (../domain.cpp:812)
Per MPI rank memory allocation (min/avg/max) = 19.44 | 20.16 | 21.30 Mbytes
Step Volume Temp Press TotEng PotEng KinEng E_vdwl E_coul E_bond E_angle E_dihed E_impro 
       0    114539.01          300    202.56851   -7630.7992   -13425.494    5794.6947   -2444.8453    25407.356    233.20386     855.2496    3285.0479            0 
ERROR on proc 19: Bond atoms 3920 3914 missing on proc 19 at step 3 (../ntopo_bond_all.cpp:60)
