LAMMPS (29 Oct 2020)
OMP_NUM_THREADS environment is not set. Defaulting to 1 thread. (../comm.cpp:94)
  using 1 OpenMP thread(s) per MPI task
using multi-threaded neighbor list subroutines
using multi-threaded neighbor list subroutines
Reading data file ...
  orthogonal box = (11.246593 11.246593 1.2735400) to (53.753407 53.753407 64.665814)
  2 by 4 by 4 MPI processor grid
  reading atoms ...
  6481 atoms
  reading velocities ...
  6481 velocities
  scanning bonds ...
  3 = max bonds/atom
  scanning angles ...
  3 = max angles/atom
  scanning dihedrals ...
  12 = max dihedrals/atom
  reading bonds ...
  6874 bonds
  reading angles ...
  10699 angles
  reading dihedrals ...
  18775 dihedrals
Finding 1-2 1-3 1-4 neighbors ...
  special bond factors lj:    0.0      0.0      0.5     
  special bond factors coul:  0.0      0.0      0.83333333
     3 = max # of 1-2 neighbors
     6 = max # of 1-3 neighbors
    12 = max # of 1-4 neighbors
    14 = max # of special neighbors
  special bonds CPU = 0.005 seconds
  read_data CPU = 0.098 seconds
PPPM initialization ...
WARNING: System is not charge neutral, net charge = -0.0175 (../kspace.cpp:313)
  using 12-bit tables for long-range coulomb (../kspace.cpp:328)
  G vector (1/distance) = 0.29925902
  grid = 72 72 96
  stencil order = 5
  estimated absolute RMS force accuracy = 4.4268185e-06
  estimated relative force accuracy = 1.3331232e-08
  using double precision MKL FFT
  3d grid and FFT values/proc = 40095 15552
Last active /omp style is kspace_style pppm/omp
Neighbor list info ...
  update every 1 steps, delay 0 steps, check yes
  max neighbors/atom: 2000, page size: 100000
  master list distance cutoff = 14
  ghost atom cutoff = 14
  binsize = 7, bins = 7 7 10
  1 neighbor lists, perpetual/occasional/extra = 1 0 0
  (1) pair lj/cut/coul/long/omp, perpetual
      attributes: half, newton on, omp
      pair build: half/bin/newton/omp
      stencil: half/bin/3d/newton
      bin: standard
Setting up sd style minimization ...
  Unit style    : real
  Current step  : 0
WARNING: Inconsistent image flags (../domain.cpp:812)
Per MPI rank memory allocation (min/avg/max) = 16.53 | 17.03 | 17.59 Mbytes
Step Volume Temp Press TotEng PotEng KinEng E_vdwl E_coul E_bond E_angle E_dihed E_impro 
       0    114539.01            0   -575.06931   -2045.9271   -2045.9271            0   -2443.7652    5424.4775     242.1526    847.80863    3296.7226            0 
     100    114539.01            0   -578.73935   -2085.8101   -2085.8101            0   -2449.9064     5424.431     240.7429    824.62955    3287.6925            0 
     200    114539.01            0   -578.60926   -2088.4694   -2088.4694            0   -2449.9656    5424.4302    240.59621    822.26683    3287.6032            0 
     300    114539.01            0   -578.60926   -2088.4694   -2088.4694            0   -2449.9656    5424.4302    240.59621    822.26683    3287.6032            0 
     400    114539.01            0   -578.60926   -2088.4694   -2088.4694            0   -2449.9656    5424.4302    240.59621    822.26683    3287.6032            0 
     500    114539.01            0   -578.60926   -2088.4694   -2088.4694            0   -2449.9656    5424.4302    240.59621    822.26683    3287.6032            0 
     600    114539.01            0   -578.60926   -2088.4694   -2088.4694            0   -2449.9656    5424.4302    240.59621    822.26683    3287.6032            0 
     643    114539.01            0   -578.60926   -2088.4694   -2088.4694            0   -2449.9656    5424.4302    240.59621    822.26683    3287.6032            0 
Loop time of 92.888 on 32 procs for 643 steps with 6481 atoms

88.8% CPU use with 32 MPI tasks x 1 OpenMP threads

Minimization stats:
  Stopping criterion = max force evaluations
  Energy initial, next-to-last, final = 
     -2045.92707232241   -2088.4693968379   -2088.4693968379
  Force two-norm initial, final = 543.66829 457.07929
  Force max component initial, final = 170.05446 192.20362
  Final line search alpha, max atom move = 1.0161749e-06 0.0001953125
  Iterations, force evaluations = 643 10009

MPI task timing breakdown:
Section |  min time  |  avg time  |  max time  |%varavg| %total
---------------------------------------------------------------
Pair    | 2.3026     | 20.739     | 37.462     | 290.9 | 22.33
Bond    | 0.17728    | 0.5836     | 0.92761    |  36.2 |  0.63
Kspace  | 52.011     | 69.125     | 87.873     | 163.4 | 74.42
Neigh   | 0          | 0          | 0          |   0.0 |  0.00
Comm    | 1.7154     | 1.9149     | 2.1248     |  12.3 |  2.06
Output  | 0.00070173 | 0.00074879 | 0.0019251  |   0.0 |  0.00
Modify  | 0.10242    | 0.20131    | 0.28898    |  13.7 |  0.22
Other   |            | 0.324      |            |       |  0.35

Nlocal:        202.531 ave         323 max          59 min
Histogram: 5 7 3 1 0 0 0 0 0 16
Nghost:        4476.09 ave        5489 max        3445 min
Histogram: 16 0 0 0 0 0 0 0 0 16
Neighs:        85462.8 ave      160589 max        7395 min
Histogram: 9 1 4 2 0 0 0 3 6 7

Total # of neighbors = 2734808
Ave neighs/atom = 421.97315
Ave special neighs/atom = 10.126832
Neighbor list builds = 0
Dangerous builds = 0
System init for write_data ...
PPPM initialization ...
  using 12-bit tables for long-range coulomb (../kspace.cpp:328)
  G vector (1/distance) = 0.29925902
  grid = 72 72 96
  stencil order = 5
  estimated absolute RMS force accuracy = 4.4268185e-06
  estimated relative force accuracy = 1.3331232e-08
  using double precision MKL FFT
  3d grid and FFT values/proc = 40095 15552
Last active /omp style is kspace_style pppm/omp
PPPM initialization ...
  using 12-bit tables for long-range coulomb (../kspace.cpp:328)
  G vector (1/distance) = 0.29925902
  grid = 72 72 96
  stencil order = 5
  estimated absolute RMS force accuracy = 4.4268185e-06
  estimated relative force accuracy = 1.3331232e-08
  using double precision MKL FFT
  3d grid and FFT values/proc = 40095 15552
Last active /omp style is kspace_style pppm/omp
Setting up cg style minimization ...
  Unit style    : real
  Current step  : 643
WARNING: Inconsistent image flags (../domain.cpp:812)
Per MPI rank memory allocation (min/avg/max) = 16.53 | 17.03 | 17.59 Mbytes
Step Volume Temp Press TotEng PotEng KinEng E_vdwl E_coul E_bond E_angle E_dihed E_impro 
     643    114539.01            0   -578.60926   -2088.4694   -2088.4694            0   -2449.9656    5424.4302    240.59621    822.26683    3287.6032            0 
     700    114539.01            0   -578.60926   -2088.4694   -2088.4694            0   -2449.9656    5424.4302    240.59621    822.26683    3287.6032            0 
     800    114539.01            0   -578.60926   -2088.4694   -2088.4694            0   -2449.9656    5424.4302    240.59621    822.26683    3287.6032            0 
     900    114539.01            0   -578.60926   -2088.4694   -2088.4694            0   -2449.9656    5424.4302    240.59621    822.26683    3287.6032            0 
    1000    114539.01            0   -578.60926   -2088.4694   -2088.4694            0   -2449.9656    5424.4302    240.59621    822.26683    3287.6032            0 
    1100    114539.01            0   -578.60926   -2088.4694   -2088.4694            0   -2449.9656    5424.4302    240.59621    822.26683    3287.6032            0 
    1200    114539.01            0   -578.60926   -2088.4694   -2088.4694            0   -2449.9656    5424.4302    240.59621    822.26683    3287.6032            0 
    1268    114539.01            0   -578.60926   -2088.4694   -2088.4694            0   -2449.9656    5424.4302    240.59621    822.26683    3287.6032            0 
Loop time of 92.7831 on 32 procs for 625 steps with 6481 atoms

89.2% CPU use with 32 MPI tasks x 1 OpenMP threads

Minimization stats:
  Stopping criterion = max force evaluations
  Energy initial, next-to-last, final = 
      -2088.4693968379   -2088.4693968379   -2088.4693968379
  Force two-norm initial, final = 457.07929 457.07929
  Force max component initial, final = 192.20362 192.20362
  Final line search alpha, max atom move = 1.0161749e-06 0.0001953125
  Iterations, force evaluations = 625 10000

MPI task timing breakdown:
Section |  min time  |  avg time  |  max time  |%varavg| %total
---------------------------------------------------------------
Pair    | 2.3943     | 20.842     | 37.735     | 290.4 | 22.46
Bond    | 0.18208    | 0.58203    | 0.92114    |  36.2 |  0.63
Kspace  | 51.638     | 68.921     | 87.716     | 163.7 | 74.28
Neigh   | 0          | 0          | 0          |   0.0 |  0.00
Comm    | 1.7049     | 1.9121     | 2.1179     |  12.2 |  2.06
Output  | 0.00041161 | 0.00045636 | 0.0017001  |   0.0 |  0.00
Modify  | 0.10174    | 0.20276    | 0.28895    |  13.6 |  0.22
Other   |            | 0.3223     |            |       |  0.35

Nlocal:        202.531 ave         323 max          59 min
Histogram: 5 7 3 1 0 0 0 0 0 16
Nghost:        4475.72 ave        5489 max        3444 min
Histogram: 16 0 0 0 0 0 0 0 0 16
Neighs:        85463.8 ave      160588 max        7395 min
Histogram: 9 1 4 2 0 0 0 3 6 7

Total # of neighbors = 2734841
Ave neighs/atom = 421.97824
Ave special neighs/atom = 10.126832
Neighbor list builds = 0
Dangerous builds = 0
System init for write_data ...
PPPM initialization ...
  using 12-bit tables for long-range coulomb (../kspace.cpp:328)
  G vector (1/distance) = 0.29925902
  grid = 72 72 96
  stencil order = 5
  estimated absolute RMS force accuracy = 4.4268185e-06
  estimated relative force accuracy = 1.3331232e-08
  using double precision MKL FFT
  3d grid and FFT values/proc = 40095 15552
Last active /omp style is kspace_style pppm/omp
Total wall time: 0:03:06
