LAMMPS data file via write_data, version 29 Oct 2020, timestep = 1213

6481 atoms
14 atom types
6874 bonds
18 bond types
10699 angles
23 angle types
18775 dihedrals
42 dihedral types

11.246593 53.753407 xlo xhi
11.246593 53.753407 ylo yhi
1.27354 64.665814 zlo zhi

Masses

1 12.01
2 1.008
3 12.01
4 16
5 14.01
6 1.008
7 16
8 14.01
9 1.008
10 12.01
11 14.01
12 12.01
13 1.008
14 16

Pair Coeffs # lj/cut/coul/long/omp

1 0.086 3.39967
2 0.015 2.59964
3 0.086 3.39967
4 0.21 2.95992
5 0.17 3.25
6 0.0157 1.06908
7 0.2104 3.06647
8 0.17 3.25
9 0 0
10 0.086 3.39967
11 0.17 3.25
12 0.086 3.39967
13 0.0157 1.06908
14 0.2104 3.06647

Atoms # full

1 1 6 0.3728 15.667537140239698 18.4301399641962 14.02463039569089 0 0 0
2 1 1 -0.0399 11.860751275389587 13.951996557524717 14.491947154678043 0 0 0
3 1 1 0.0692 12.896449029963835 12.288175309231038 16.504129070789563 0 0 0
4 1 2 0.0 14.473944513946192 15.29377320670445 13.916390269691863 0 0 0
5 1 4 -0.5853 18.058768005424685 19.264140714251432 13.263735555128578 0 0 0
6 1 1 -0.2315 17.115607460428958 14.13371560926266 15.72997591746514 0 0 0
7 1 1 0.3883 17.7727222883268 15.357592755342655 15.944024628878779 0 0 0
8 1 1 -0.3154 17.266488900714265 16.544121940026887 15.397757258766813 0 0 0
9 1 1 0.5496 16.10644483467746 16.491726522313535 14.611551828707638 0 0 0
10 1 8 -0.9254 15.75661341032155 17.48407103503038 13.68546215506246 0 0 0
11 1 2 0.0 17.857769162759308 17.451971692810726 15.478560989227438 0 0 0
12 1 2 0.0 11.678709730829048 18.017047941663545 12.222513765564472 0 0 0
13 1 1 -0.0399 13.01155042232684 11.929902019889425 15.14480876601155 0 0 0
14 1 1 -0.2772 15.378668363693922 15.30643096299243 14.514566777378063 0 0 0
15 1 1 0.0344 12.423339642802462 12.721628842746515 14.1563809009141 0 0 0
16 1 2 0.0 15.391451336708347 13.179643762698001 14.834858699814859 0 0 0
17 1 2 0.0 17.558498529381023 13.196416775062438 16.061480755270033 0 0 0
18 1 2 0.0 15.333720408751894 20.12009821726529 13.135068188585926 0 0 0
19 1 2 0.0 12.461130898579265 12.418226382336462 13.11622495796085 0 0 0
20 1 1 0.1293 15.89997158642454 14.116279412053268 15.032824727144002 0 0 0
21 1 1 -0.0843 12.230015105871257 13.466687201424248 16.882379065943564 0 0 0
22 1 1 0.0692 11.700052229552321 14.288781787581819 15.858505096734206 0 0 0
23 1 2 0.0 12.874402138866204 21.48493867986681 9.937673932505037 0 0 0
24 1 6 0.3728 15.668175314553444 18.43057030144011 14.028162615909734 0 0 0
25 1 7 -0.6373 12.141090424902217 14.88972453505392 12.222710862097408 0 0 0
26 1 12 0.7387 18.300658200263495 20.41968925002605 13.007631725415113 0 0 0
27 1 7 -0.6148 18.031789332770888 20.84365004789145 11.722193616785656 0 0 0
6438 1 9 0.4551 13.102392438494284 14.923403568192448 12.387981812527288 0 0 0
3240 1 12 0.7369 11.4341371546458 14.881452114934676 13.389371037127088 0 0 0
28 1 2 0.0 20.568448560442608 14.654405436996974 12.009505063480676 0 0 0
29 1 1 0.1293 21.116395086220727 16.25461556781516 13.351178357754883 0 0 0
30 1 1 0.06 18.749827920824508 20.953654769782666 15.529650887914093 0 0 0
31 1 11 -0.421 19.02441128795124 15.398038055307056 16.57919445426998 0 0 0
32 1 2 0.0 21.461969613729906 15.802319525361009 16.456275782708882 0 0 0
33 1 6 0.3577 19.78362887816114 15.73348303265353 16.008080969316925 0 0 0
34 1 1 -0.0713 18.579064174044923 21.3687234965814 14.166011574189193 0 0 0
35 1 2 0.0 18.8511110894487 19.901073420734427 15.791554926039693 0 0 0
36 1 1 -0.2772 21.26425112406103 14.98249283793798 12.780194876002659 0 0 0
37 1 2 0.0 21.522687217012994 18.725219513031156 16.572824699652976 0 0 0
38 1 2 0.0 20.28602092849597 16.891440984759672 13.050497921065265 0 0 0
39 1 6 0.3728 23.788110480033325 13.074735895455383 12.074944561468223 0 0 0
40 1 11 -0.4025 24.046704883108916 19.240237820634675 15.852826593645588 0 0 0
41 1 10 0.5029 24.172355635205097 16.290507718486648 17.009062619993564 0 0 0
42 1 11 -0.421 24.096976345230598 16.308048594534988 15.619017261172791 0 0 0
43 1 1 0.3883 23.11395700464533 15.868490244189417 14.698777309370591 0 0 0
44 1 1 -0.2175 23.432283445715086 19.63050188990783 17.09374775882995 0 0 0
45 1 6 0.3577 24.936348298806085 16.66796331620026 15.182225895126178 0 0 0
46 1 1 -0.0399 25.044307490362005 19.275910115294412 11.48047779934211 0 0 0
47 1 6 0.3503 23.35708248715535 19.012361534837183 15.151607197980992 0 0 0
48 1 1 -0.3154 23.263137123059224 14.61051324739377 14.103841570780178 0 0 0
49 1 1 0.0692 24.669394113001452 19.148675474386785 12.840019809707183 0 0 0
50 1 2 0.0 24.11384369345354 13.99137942271853 14.371483405111064 0 0 0
51 1 2 0.0 24.736748502802985 13.605235640488807 17.002992973491438 0 0 0
52 1 10 0.5083 25.35423343152493 19.41899590101341 15.380026219531556 0 0 0
53 1 8 -0.9254 22.784076868658328 13.190324468068086 12.201165448889649 0 0 0
54 1 2 0.0 23.608996313951167 19.142058771606035 13.064988387470898 0 0 0
55 1 2 0.0 21.99809251891068 17.73832265390242 14.636132256913394 0 0 0
56 1 1 -0.2315 22.079466783508106 16.72298560159303 14.263078440378745 0 0 0
57 1 1 0.5496 22.3958161689182 14.21389947615887 13.0777478232238 0 0 0
58 1 12 0.7369 24.197276239822507 20.01749717474324 10.481077895291484 0 0 0
59 1 4 -0.5758 23.05258931790999 19.693208418545368 10.243131640914426 0 0 0
60 1 7 -0.6148 23.415383933736525 21.244850516993065 14.317749505041974 0 0 0
61 1 6 0.3728 23.790569825617528 13.077479072551377 12.077199783864833 0 0 0
62 1 7 -0.6373 24.576867397725835 21.323720261998375 10.392919829401086 0 0 0
6440 1 9 0.4463 23.532182649514677 20.489487577918265 14.949836229221477 0 0 0
6441 1 9 0.4551 24.39140440409146 21.665973880203723 9.49821566269112 0 0 0
6439 1 9 0.4463 18.512612943062503 21.629593174449685 11.404282467139225 0 0 0
63 1 1 0.1082 29.021484646530737 18.33712282566168 17.103114359610473 0 0 0
64 1 6 0.3503 32.38908949629046 13.567904576719572 15.125761011941574 0 0 0
65 1 1 -0.0843 25.64298706092667 19.287965151015698 13.875740492484892 0 0 0
66 1 6 0.3503 30.07908651644373 15.22150282529512 16.54218537168966 0 0 0
67 1 1 0.0423 30.105028013512083 13.959790359664346 14.530946352384756 0 0 0
68 1 4 -0.5126 27.54584750664544 16.44913766643963 15.136571402568395 0 0 0
69 1 9 0.4551 29.094013544793114 20.364208531019806 13.30161741068221 0 0 0
70 1 2 0.0 28.153410940776457 18.44037377764066 16.464537304739586 0 0 0
71 1 10 0.5566 31.787297197030764 12.179273847031899 13.784169839875545 0 0 0
72 1 2 0.0 26.00650522052259 12.03608182991074 15.595118866329052 0 0 0
73 1 4 -0.5853 25.86779910140482 12.568267843253578 12.083746966109322 0 0 0
74 1 1 0.3365 26.46128664966973 12.433313408360135 16.497456199390804 0 0 0
75 1 1 0.0692 26.97704688182492 19.508617427633926 13.457061179853868 0 0 0
76 1 2 0.0 27.72071131829121 19.78936812834891 14.194956894207017 0 0 0
77 1 6 0.3503 28.439093833422664 21.020489428315432 16.986007201257046 0 0 0
78 1 1 -0.0399 27.367788216886055 19.38283509317715 12.105039773945052 0 0 0
79 1 4 -0.4748 26.17802202294815 19.955381984577052 16.093646043739444 0 0 0
80 1 12 0.7387 27.017825524502175 12.152600182919006 12.110244927467877 0 0 0
81 1 1 0.06 29.430779166791883 12.30439780392776 12.90015232374987 0 0 0
82 1 1 -0.082 30.435037866912733 12.85656434193833 13.715118691099216 0 0 0
83 1 1 0.06 27.79872979976501 13.881353909270286 13.780050291075085 0 0 0
84 1 1 -0.082 28.795936590698947 14.49087417223246 14.568720519745044 0 0 0
85 1 10 0.5566 28.479577683551984 15.711661895518379 15.40529958715774 0 0 0
86 1 2 0.0 29.67975025489372 11.451146073307061 12.27741194628017 0 0 0
87 1 2 0.0 30.872268707483055 14.402209752390924 15.15484379643664 0 0 0
88 1 1 -0.0713 28.107237817836328 12.792511764156169 12.935294434315455 0 0 0
89 1 12 0.7369 28.77912148135096 19.600991601769366 11.63578974102211 0 0 0
90 1 7 -0.6373 29.637000479342763 20.10908811218218 12.537766349740867 0 0 0
91 1 2 0.0 26.775752331665508 14.244676686404299 13.838257068985964 0 0 0
92 1 11 -0.4025 29.39606833714444 15.952578792352316 16.42133588825528 0 0 0
93 1 1 -0.2175 27.764424666148557 12.069332232576546 16.87834524920164 0 0 0
94 1 2 0.0 26.661316444914995 19.09199385462657 10.082412831819221 0 0 0
95 1 4 -0.5758 29.112317390540234 19.48255487030275 10.471753749215106 0 0 0
96 1 1 0.0344 26.389130414677595 19.14395229543257 11.134106646802454 0 0 0
97 1 1 -0.1006 14.541251691215692 16.774847192908457 21.727712215720096 0 0 0
98 1 1 0.0653 14.638869827339908 15.380728690348892 21.512401631810288 0 0 0
99 1 2 0.0 13.732564224273702 14.804578616102976 21.36457484152517 0 0 0
100 1 1 -0.2175 11.62064474512982 18.31578543764804 17.501015038263013 0 0 0
101 1 4 -0.4675 18.31127455297553 15.242380583175617 18.725935297763737 0 0 0
102 1 2 0.0 12.710994308441572 20.916992205543817 20.21658112121942 0 0 0
103 1 6 0.3503 17.978474462762872 13.426466821474191 20.80558177977922 0 0 0
104 1 1 0.3365 13.826374743955144 16.818140426915015 18.36971365719116 0 0 0
105 1 2 0.0 14.672660297957126 16.24759805833726 18.746069155771664 0 0 0
106 1 2 0.0 14.986963038254123 18.599512791211655 17.99278772358208 0 0 0
107 1 4 -0.4748 11.989050761128007 12.795069331105779 19.137348056193638 0 0 0
108 1 2 0.0 13.349480883799693 11.668358793284908 17.277038329680327 0 0 0
109 1 10 0.5029 15.960639734207223 13.26573948971351 21.025044719007514 0 0 0
110 1 1 -0.2418 13.99917373999529 18.150875794845387 17.97018935617062 0 0 0
111 1 4 -0.4675 12.148823929451956 16.81926588387823 21.755219584213027 0 0 0
112 1 11 -0.4025 17.22119008627538 12.761289765499901 20.71593281126664 0 0 0
113 1 1 0.3365 12.89286242062557 18.90413599853643 17.551396894061927 0 0 0
114 1 1 0.3365 12.009322583801858 20.839633186185015 21.0432074307552 0 0 0
115 1 1 -0.2175 12.549340332627217 16.233519091294717 18.333912069516305 0 0 0
116 1 10 0.5083 12.091494998378284 13.726024959801553 18.36799113939462 0 0 0
117 1 6 0.3503 12.399272941349288 14.964563361911233 19.938742048905127 0 0 0
118 1 11 -0.4025 12.335665212472822 14.96718156176388 18.9251657212605 0 0 0
119 1 1 -0.2175 17.562146587385303 11.55945679998968 20.014386486459664 0 0 0
120 1 10 0.5029 13.187129573170663 17.45544616114401 21.775682409939815 0 0 0
121 1 1 -0.1006 15.8895219577449 14.725763723446919 21.434265206510663 0 0 0
122 1 1 0.1082 11.445638923785266 16.988046550786517 17.915119081800153 0 0 0
123 1 4 -0.4675 14.949992685356552 12.611947860075022 20.841850757735617 0 0 0
124 1 1 0.0653 15.732542879565584 17.502646144565112 21.928744606327626 0 0 0
125 1 6 0.3503 14.078291238400839 19.295684907768038 21.62791746449647 0 0 0
126 1 11 -0.4025 13.187631130482698 18.84331500701877 21.790105688712664 0 0 0
127 1 1 0.0653 17.052376683557807 15.47734760330188 21.708813920540805 0 0 0
128 1 6 0.3503 13.619470673597041 12.493741548179372 23.48561761533289 0 0 0
129 1 1 -0.2175 15.294102778584001 20.370709427776923 24.97447932500934 0 0 0
130 1 2 0.0 12.285514168690913 13.180979823272898 22.571094695486718 0 0 0
131 1 1 0.1082 16.566276461416866 12.77781155310541 24.830178517781768 0 0 0
132 1 2 0.0 16.74334099111878 13.792083827472387 24.485312400638602 0 0 0
133 1 11 -0.4025 18.17973848935917 18.58042034674137 23.375950788707996 0 0 0
134 1 10 0.5029 13.83788876133425 14.220128365002827 24.578290399350447 0 0 0
135 1 2 0.0 15.691691768177444 18.575670795503502 22.076729043061654 0 0 0
136 1 1 -0.1006 12.482407285552297 14.667668844003638 24.11534843836291 0 0 0
137 1 1 -0.2175 17.09590700337069 18.884778482716882 24.249569848813604 0 0 0
138 1 1 0.0653 11.841284179296974 15.71663006555308 24.788274043788316 0 0 0
139 1 1 -0.2175 15.303643361384836 12.197309396328572 24.643192592697453 0 0 0
140 1 11 -0.4025 14.522604002380897 21.569569824647765 24.873528189757625 0 0 0
141 1 1 -0.2175 12.090844903961239 19.744490001982406 21.920268740370705 0 0 0
142 1 2 0.0 16.86457334450124 20.922178095398383 23.571000602479273 0 0 0
143 1 1 0.1082 16.46860676723255 20.146693728651687 24.220802136181337 0 0 0
144 1 11 -0.4025 14.237276227050346 12.971723422737249 24.128421219013703 0 0 0
145 1 10 0.5029 18.239495458187534 17.60010832996827 22.38904100877188 0 0 0
146 1 1 -0.1006 16.98155584048021 16.854475668762294 22.001588200913485 0 0 0
147 1 1 0.0653 11.778439905097581 13.963212070444632 23.124350442229566 0 0 0
148 1 2 0.0 18.021981312173278 14.990124630519588 21.71533208669077 0 0 0
149 1 2 0.0 13.012767917193896 19.941194455816323 17.24808989474112 0 0 0
150 1 1 0.0653 20.964500643993045 15.205903007544443 19.749135408620074 0 0 0
151 1 2 0.0 18.96810437211871 12.603192605404816 18.740771821688192 0 0 0
152 1 1 0.3365 18.52730127604116 11.643201014224545 18.99448010784239 0 0 0
153 1 2 0.0 20.17134661921848 14.985546982864776 20.456400466661176 0 0 0
154 1 1 -0.1006 20.667073530414193 15.38497995850574 18.38917005328722 0 0 0
155 1 4 -0.5126 18.4251968979792 20.616131841270217 18.550070049289232 0 0 0
156 1 1 0.3365 20.04737623552921 21.28156015407317 20.977166392566783 0 0 0
157 1 2 0.0 20.745304724313723 18.571402612776378 18.906774784646885 0 0 0
158 1 1 0.0653 21.714301235525653 15.655494855634492 17.486015188267974 0 0 0
159 1 10 0.5029 19.23444442488508 15.33475017190504 17.937320917824753 0 0 0
160 1 1 -0.2418 21.680106507082236 19.075615143796366 18.6823255015404 0 0 0
161 1 10 0.5566 19.04494553073463 21.52568043762228 18.02900783102585 0 0 0
162 1 2 0.0 19.524019847006013 20.399344992125116 20.634369153775523 0 0 0
163 1 1 -0.2175 21.903109406829778 12.767896493356828 21.609700527586437 0 0 0
164 1 6 0.3503 19.071448175572115 18.97151103644994 23.649586155627425 0 0 0
165 1 2 0.0 20.44305132544482 12.40201169411851 23.164647989120734 0 0 0
166 1 1 0.1082 20.904947263404512 12.020182933631158 22.25968093794383 0 0 0
167 1 1 -0.2418 20.429370884775764 21.337287188529086 22.322739273880902 0 0 0
168 1 2 0.0 20.176417232431792 20.512077110239545 22.977379439715747 0 0 0
169 1 4 -0.4675 19.325799029348953 17.278132193503716 21.942063242106364 0 0 0
170 1 2 0.0 24.969403962918783 20.975433523868546 17.86761781095303 0 0 0
171 1 1 0.0653 23.296156431107107 15.70106895132549 19.30095304384453 0 0 0
172 1 11 -0.4025 24.27137971853507 21.096589929173884 20.440563910982224 0 0 0
173 1 1 -0.1006 22.278886657840374 15.359760945834374 20.20859633916471 0 0 0
174 1 10 0.5029 22.59635856180719 15.195792650934209 21.663215770231346 0 0 0
175 1 10 0.5029 24.602127621115148 20.626204086384217 21.707501988215707 0 0 0
176 1 2 0.0 22.12452786015978 19.51558748985034 20.740430694934105 0 0 0
177 1 4 -0.4675 25.21129149034725 16.685453000632656 17.501147560194887 0 0 0
178 1 1 0.3365 22.458812957232237 19.611644766604574 19.71297317331353 0 0 0
179 1 1 0.1082 24.078426229680794 20.399083261239785 18.088966954511555 0 0 0
180 1 2 0.0 23.285865427984735 12.833927823543657 19.94005594986046 0 0 0
181 1 2 0.0 24.29217272015959 15.872104426546482 19.692086314405408 0 0 0
182 1 1 0.3365 22.49801483359726 12.273122904214903 20.438911151552226 0 0 0
183 1 1 -0.2175 23.6122783395348 20.359804974036145 19.413300619684513 0 0 0
184 1 1 -0.1006 23.041551408913158 15.83690953301321 17.91767723626804 0 0 0
185 1 1 0.3365 22.134749819132498 19.149867062055307 17.365946036141967 0 0 0
186 1 11 -0.4025 22.411413655840335 13.942044491156194 22.221551601726503 0 0 0
187 1 2 0.0 24.606589094415863 13.060195179081017 23.27311647441284 0 0 0
188 1 2 0.0 25.032274920886163 20.17920889634364 24.37656247489303 0 0 0
189 1 6 0.3503 22.84652803889176 13.799007347067676 23.12558185813134 0 0 0
190 1 1 0.0653 24.781693186332852 21.21521756161295 24.170929854746344 0 0 0
191 1 1 -0.1006 24.65640609665171 21.63986043526649 22.824735044936993 0 0 0
192 1 4 -0.4675 23.168970710531358 16.061521221702723 22.29313276972042 0 0 0
193 1 2 0.0 22.157713595157098 19.832624269518274 24.76783832320003 0 0 0
194 1 4 -0.4675 24.620487973519083 19.435051309450223 21.955663722320452 0 0 0
195 1 10 0.5029 28.007648514240163 21.177527178314357 18.975415458577935 0 0 0
196 1 1 -0.2175 29.692442003578215 17.103917980360656 17.2105473947595 0 0 0
197 1 1 -0.2175 29.458212035110773 19.44372601174389 17.857016082862497 0 0 0
198 1 11 -0.4025 28.663595369983764 20.620682970797173 17.888131611248042 0 0 0
199 1 2 0.0 31.308877134596244 16.046893675653727 18.17771715703664 0 0 0
200 1 1 0.0653 28.20739991713991 21.36330751354251 21.468806035015337 0 0 0
201 1 2 0.0 30.976971623583264 20.207523233825267 19.206035631623983 0 0 0
202 1 11 -0.4025 28.017412265342156 13.590103603956084 20.26494427001496 0 0 0
203 1 1 0.0653 27.941732110619938 19.152285352235 20.510328434434054 0 0 0
204 1 2 0.0 27.850893356777476 18.50635551946409 19.643962780432503 0 0 0
205 1 1 -0.1006 28.116248429283942 20.537090620440477 20.334088972578304 0 0 0
206 1 1 -0.2418 31.278793174702283 18.118779730910447 18.764902989062318 0 0 0
207 1 1 -0.2418 25.736648751352266 13.314393417979591 17.30676386172437 0 0 0
208 1 1 0.3365 30.618211149093774 19.34542273453246 18.64743564534138 0 0 0
209 1 1 -0.1006 27.785501693546006 18.598549541915844 21.7934157881392 0 0 0
210 1 2 0.0 32.068746306374216 14.622696572552316 21.602783055483776 0 0 0
211 1 1 0.3365 30.795657551823265 17.001341617370862 18.076841291390455 0 0 0
212 1 2 0.0 29.30587819889406 12.222728059514985 18.37560011063538 0 0 0
213 1 6 0.3503 28.01948695989848 14.572985327972784 20.544572589753006 0 0 0
214 1 1 0.3365 26.29001881715693 13.78609983599036 18.510639289552408 0 0 0
215 1 2 0.0 25.71229297443128 14.432379858223742 19.15458643714218 0 0 0
216 1 1 -0.2175 27.556126961443766 13.343941545590598 18.93418213334945 0 0 0
217 1 1 0.1082 28.319869565785197 12.558866694580614 18.06680712544312 0 0 0
218 1 10 0.5029 28.56547925601473 12.713370059330135 21.20412943754334 0 0 0
219 1 4 -0.4675 27.437450331585367 16.400537115713572 20.93301166804287 0 0 0
220 1 4 -0.5126 31.755708711255846 13.151870988969467 19.40232455566681 0 0 0
221 1 2 0.0 32.1052108150518 12.507155646956914 17.201690175678383 0 0 0
222 1 2 0.0 32.16524318618154 18.03292982267607 19.385049927685692 0 0 0
223 1 1 -0.2175 27.20819676155705 15.25157708003453 23.57090313195533 0 0 0
224 1 1 0.0653 27.757368790804314 19.463411512879333 22.90913210665123 0 0 0
225 1 6 0.3503 31.36296408721135 15.829377444237647 22.770815527930406 0 0 0
226 1 1 0.3365 31.159660187581604 20.304734627947457 24.306400741176294 0 0 0
227 1 1 -0.2175 27.51812120662039 13.317496805407878 25.021500957471144 0 0 0
228 1 1 -0.2418 25.561823801726636 13.456573489368726 23.58911760436638 0 0 0
229 1 6 0.3503 27.745744783104854 17.201883571527432 23.962713507175426 0 0 0
230 1 10 0.5029 27.57822049154425 17.110406842950187 21.915174435078708 0 0 0
231 1 1 0.3365 26.03802931873451 14.662918842859062 23.057397141226087 0 0 0
232 1 11 -0.4025 31.766553794878764 16.15768906317824 23.637053184939212 0 0 0
233 1 1 0.1082 27.931996966416186 14.585367145936118 24.574103213173057 0 0 0
234 1 1 -0.2418 31.012425016290308 19.74696829371735 23.029865847362014 0 0 0
235 1 1 0.3365 31.196577630665423 18.373237435638803 22.838092744557574 0 0 0
236 1 2 0.0 28.8298261030581 15.042439297762163 24.979726604816943 0 0 0
237 1 2 0.0 27.555403822657215 19.051668630802368 23.89159620659114 0 0 0
238 1 4 -0.4675 29.151648135990737 13.172548299781573 22.163351311077175 0 0 0
239 1 11 -0.4025 27.579139353812064 16.57297858257425 23.192242610572983 0 0 0
240 1 1 -0.1006 28.01796671503136 20.846244317469733 22.76644020290186 0 0 0
241 1 1 -0.2175 31.53167868360494 17.53964669803364 23.917410153066577 0 0 0
242 1 2 0.0 25.471070443825855 15.169900957427664 22.28425725071893 0 0 0
243 1 2 0.0 25.97612105635063 11.803371125019057 24.91373803040486 0 0 0
244 1 1 0.3365 26.318687601307882 12.76809330112061 24.543622159534188 0 0 0
245 1 2 0.0 31.0278403705479 21.37544489020145 24.44656116433039 0 0 0
246 1 2 0.0 30.760632232661713 20.379004858978945 22.1849367927302 0 0 0
247 1 2 0.0 31.087390913545633 17.94943890493202 21.841294705312208 0 0 0
248 1 10 0.5029 28.182064625113753 21.761990599165735 23.95798528535848 0 0 0
249 1 1 0.0423 32.44815294423601 13.775697195427421 22.1682491668873 0 0 0
250 1 2 0.0 11.698025759545775 11.29049199026194 28.950563538411334 0 0 0
251 1 2 0.0 14.954060831285357 12.603239886997606 28.876046711737978 0 0 0
252 1 4 -0.4675 12.80846698716109 15.920391544860653 28.635839369570995 0 0 0
253 1 1 0.3365 16.619067378740134 17.891858681040613 25.12108109974663 0 0 0
254 1 2 0.0 17.115513051152423 16.9266218872234 25.163135144625045 0 0 0
255 1 1 0.0423 14.039001235623225 20.83880912873794 31.932880798253166 0 0 0
256 1 6 0.3503 13.306747211899244 12.868109519046017 29.204508773494737 0 0 0
257 1 1 -0.2175 17.584224106374677 12.029495713524051 25.440083258254212 0 0 0
258 1 10 0.5029 13.381521980404381 14.86641379321768 28.851186840494126 0 0 0
259 1 2 0.0 15.132290744581429 17.368813524102148 26.58206864666129 0 0 0
260 1 1 -0.2418 15.496673390041972 18.137490310775107 25.915593179934366 0 0 0
261 1 1 0.3365 14.824595881891003 19.359502156194637 25.82945006333249 0 0 0
262 1 10 0.5029 17.818472385168626 17.15698213479215 28.499871105493554 0 0 0
263 1 1 -0.082 14.004968003371449 21.233582206605103 30.580099940555865 0 0 0
264 1 11 -0.4025 11.805449026037639 20.20457395865321 30.250836722124223 0 0 0
265 1 1 -0.2418 17.57461903462105 16.12270229991499 32.00976410400975 0 0 0
266 1 1 0.0653 15.538912888061462 13.515828905859061 28.861231784400527 0 0 0
267 1 4 -0.4675 14.440424883370998 14.80537650340132 25.461929499160245 0 0 0
268 1 2 0.0 13.919958165359304 19.519174936427422 26.412354251958373 0 0 0
269 1 1 0.06 15.215617302987631 21.560678192531526 29.939567381347885 0 0 0
270 1 4 -0.4675 17.313835185041263 18.247429848288967 28.707794329289577 0 0 0
271 1 1 0.06 16.467680127224614 20.835255625822356 31.89647375440601 0 0 0
272 1 1 0.3365 16.38383317395315 15.553414981795662 32.475533959124235 0 0 0
273 1 1 0.0653 17.694644155931506 14.619105178627514 28.755746901343922 0 0 0
274 1 1 -0.0713 16.45103741273145 21.328319335172566 30.574429541223722 0 0 0
275 1 11 -0.4025 12.714944705888996 13.682808070012186 29.126222900006383 0 0 0
276 1 6 0.3503 11.993625759723095 19.80919095967942 31.162262068073456 0 0 0
277 1 10 0.5029 17.65092704024853 12.115461376404363 29.011063795157977 0 0 0
278 1 1 -0.1006 16.94425076732548 13.434954565977666 28.873471368365447 0 0 0
279 1 10 0.5566 12.759213026969782 21.078844576272786 29.745571380982945 0 0 0
280 1 2 0.0 17.414892182209677 20.626940097765395 32.38505524575639 0 0 0
281 1 1 0.0653 15.655022113464105 15.932640037645127 28.78951962504552 0 0 0
282 1 1 -0.1006 17.056249700644198 15.876370947124112 28.698342453517167 0 0 0
283 1 1 -0.1006 14.882178314258084 14.761381493202373 28.838895333733667 0 0 0
284 1 2 0.0 15.158287663529448 16.89725341141555 28.77398540848365 0 0 0
285 1 2 0.0 12.395430543742357 16.261059562627572 25.54725734623354 0 0 0
286 1 4 -0.5126 14.715187187174202 12.05246061889639 31.57967723329193 0 0 0
287 1 4 -0.5126 12.708236066678765 21.497368800048427 28.598626878393777 0 0 0
288 1 2 0.0 12.063889475174369 18.694244854224124 28.0713646612334 0 0 0
289 1 12 0.7387 17.736136686747717 21.477271245828078 29.81136271148674 0 0 0
290 1 2 0.0 17.628995117796155 17.191370663611693 31.82392672852911 0 0 0
291 1 1 -0.2175 11.326933660890523 13.397885422646892 29.24541672391017 0 0 0
292 1 10 0.5566 14.368735035676467 12.56925562879201 32.63110968598496 0 0 0
293 1 1 -0.2175 16.30258025315412 14.172428564771756 32.70409365643839 0 0 0
294 1 1 -0.082 15.26328252920211 20.59130794325533 32.58156416042451 0 0 0
295 1 4 -0.4675 12.441744447882627 15.738941666568723 32.80871431070723 0 0 0
296 1 1 0.0423 12.120537483433901 11.456471923430712 32.598088607060376 0 0 0
297 1 2 0.0 17.361313766546605 12.290386894802321 32.63236902458903 0 0 0
298 1 1 0.1082 17.421965002149093 13.36010780576699 32.45133520407604 0 0 0
299 1 2 0.0 13.115463842289437 20.59989637393924 32.452009849955495 0 0 0
300 1 2 0.0 15.514467178099663 16.178934643511436 32.65130979111117 0 0 0
301 1 6 0.3503 13.922166140046597 21.7560253955781 25.666887634811335 0 0 0
2681 1 6 0.3503 15.878748960792977 11.261551536266172 29.55683277840167 0 0 0
3564 1 6 0.3503 11.247041993843965 16.68395934624735 26.868811687068057 1 0 0
302 1 2 0.0 21.10596593074381 15.850884531814344 25.14608868007413 0 0 0
303 1 2 0.0 18.778662256571746 14.554981688122803 28.73772237208604 0 0 0
304 1 1 0.3365 19.468006654549303 19.158081741522924 26.748674871388676 0 0 0
305 1 2 0.0 21.347408412080437 21.560171487859822 31.250409000675138 0 0 0
306 1 1 -0.2175 19.939930887757548 17.981039595075206 27.36540410686321 0 0 0
307 1 1 0.3365 21.553414091520818 19.340062082622968 25.52740108016422 0 0 0
308 1 4 -0.4675 18.851781725242642 12.013107496955607 28.826251315644754 0 0 0
309 1 10 0.5566 20.874901877131517 13.180194559655893 30.99312218375957 0 0 0
310 1 11 -0.4025 19.072238631948945 17.01000589322999 27.93634362365351 0 0 0
311 1 6 0.3503 19.354814878537677 16.054274656337387 27.75361617770765 0 0 0
312 1 10 0.5029 19.437356373748123 13.763979026987482 25.595027722777267 0 0 0
313 1 2 0.0 21.051972055095906 11.794058185393563 26.622357361004084 0 0 0
314 1 6 0.3503 19.591991407762556 11.737069486611453 25.657477904423146 0 0 0
315 1 1 0.3365 18.681723571649623 15.306986693496484 31.73571616116209 0 0 0
316 1 4 -0.5853 18.78644873369913 21.002966819591272 30.187574048916527 0 0 0
317 1 11 -0.4025 18.919640157889237 12.48288071812458 25.54156404951651 0 0 0
318 1 4 -0.5126 21.104695029575836 14.168597167993145 30.321163604923516 0 0 0
319 1 1 -0.1006 20.913125704680404 13.822394555059862 25.85800632566008 0 0 0
320 1 4 -0.4675 18.76227180129479 14.771003849546599 25.487637174599257 0 0 0
321 1 2 0.0 19.577433261112393 15.767926800113372 31.33921603975697 0 0 0
322 1 2 0.0 18.44531504365122 19.495264889375793 26.886812331493182 0 0 0
323 1 1 -0.2175 18.621807154583898 13.917408700036283 31.97250081502658 0 0 0
324 1 1 0.3365 21.414618783190424 20.52386193502226 31.574364837393475 0 0 0
325 1 2 0.0 19.931136012164174 20.755741934066943 25.370303161466033 0 0 0
326 1 2 0.0 21.63993681814562 16.708204180385824 27.697754297764195 0 0 0
327 1 1 0.1082 21.268595533422808 17.581688735158945 27.168920600737646 0 0 0
328 1 11 -0.4025 19.738386474001377 13.04095537535084 31.786989001750868 0 0 0
329 1 1 -0.2418 20.292254231657207 19.85276147526266 25.852443274076837 0 0 0
330 1 1 0.0653 21.59182283606466 12.707741658360048 26.394540399907545 0 0 0
331 1 1 0.0653 21.62424329714761 15.011259567399827 25.597797571667332 0 0 0
332 1 6 0.3503 19.67575334843091 12.178045560765543 32.31572353660542 0 0 0
333 1 1 -0.2175 21.563556836603098 17.84865767992074 32.405389478169795 0 0 0
334 1 11 -0.4025 21.50823232383721 16.50972447086217 32.87228718280604 0 0 0
335 1 1 -0.2175 20.97116231818881 20.165515598763605 32.85963413531319 0 0 0
336 1 10 0.5029 24.344662631790886 21.61556390962811 26.67969177009721 0 0 0
337 1 10 0.5029 25.281364191243174 15.642848651425105 29.49121518363034 0 0 0
338 1 6 0.3503 23.939325447822544 18.361934447894683 25.440109246275725 0 0 0
339 1 1 -0.2175 22.033563159152976 18.1769242638901 26.15312816842627 0 0 0
340 1 1 -0.2175 25.15833629739409 18.114660208545352 29.94345376702885 0 0 0
341 1 1 0.1082 25.083400093561472 18.618693118308947 28.63733958412637 0 0 0
342 1 1 -0.2175 25.205275234345155 19.99230891792278 28.394853581399587 0 0 0
343 1 11 -0.4025 24.83002507901783 16.756908634110296 30.167992042933168 0 0 0
344 1 2 0.0 24.867239993595692 17.943040381478117 27.81924550578126 0 0 0
345 1 1 0.3365 21.97922547073367 18.20847850775599 31.1087846818452 0 0 0
346 1 1 -0.1006 22.993246165502683 15.115895112762288 25.914506950144563 0 0 0
347 1 4 -0.4675 24.833026074885858 11.720063960580825 27.667673297481926 0 0 0
348 1 10 0.5029 23.717970862033948 11.580654923321923 27.20897027955466 0 0 0
349 1 11 -0.4025 25.060104189764996 20.487900435301803 27.061297035504627 0 0 0
350 1 10 0.5029 23.813962900345356 16.36653375735414 25.674551179243107 0 0 0
351 1 2 0.0 23.57127783016317 13.335669667576278 31.29432576205624 0 0 0
352 1 6 0.3503 23.925095418339303 16.62817979523394 30.61196510424239 0 0 0
353 1 1 0.0423 23.23996129535174 12.306979172501055 31.209709187233674 0 0 0
354 1 2 0.0 24.71546833717873 14.017989240897172 26.596382176838564 0 0 0
355 1 4 -0.4675 24.533098981001565 14.686994753970382 29.417426888159152 0 0 0
356 1 1 0.0653 23.650390056762095 13.971449722474619 26.410285136698405 0 0 0
357 1 2 0.0 22.195078701856044 19.829825081381646 29.688779318177627 0 0 0
358 1 4 -0.4675 25.012526838644526 16.285692772022113 25.480196372782967 0 0 0
359 1 1 -0.1006 22.968276284616643 12.764775039544968 26.657545953600966 0 0 0
360 1 11 -0.4025 23.28664159385238 17.6518952489334 25.729201954185427 0 0 0
361 1 2 0.0 22.336334753304175 17.453622524869143 30.415019751890746 0 0 0
362 1 1 -0.2418 21.90006227164984 19.546568404990936 30.69483636450034 0 0 0
363 1 1 -0.082 21.858619341082992 12.04899987578554 31.07922197730002 0 0 0
364 1 4 -0.5126 23.70081246143335 15.938685182198311 32.82741503648573 0 0 0
365 1 1 -0.082 24.168124402465594 11.249021193052702 31.335931875072625 0 0 0
366 1 1 0.3365 25.382738281176703 18.980842569138634 31.028092847380826 0 0 0
382 1 2 0.0 25.413688548756234 18.593399202851753 32.04503165990897 0 0 0
367 1 6 0.3503 25.49031907487048 19.940178767424428 26.337161465063513 0 0 0
368 1 1 0.1082 32.13466696682045 17.592765322935556 31.821402788661942 0 0 0
369 1 1 0.0653 27.709219204254765 16.505436817329585 29.236620024780947 0 0 0
370 1 11 -0.4025 27.876239781449925 21.220882176112422 25.198568818325185 0 0 0
371 1 1 0.0653 27.037238269468965 14.426319595898521 28.198375784937582 0 0 0
372 1 1 0.3365 30.199762605572513 13.841440411873178 32.07430321111589 0 0 0
373 1 2 0.0 27.52731378425456 17.34676038292941 29.894070528679954 0 0 0
374 1 1 0.0653 29.33862301493768 15.15010905211859 28.03632925828707 0 0 0
375 1 2 0.0 31.12844328716139 17.81203900358866 32.15854866694794 0 0 0