LAMMPS data file via write_data, version 29 Oct 2020, timestep = 213

6481 atoms
14 atom types
6874 bonds
18 bond types
10699 angles
23 angle types
18775 dihedrals
42 dihedral types

11.246593 53.753407 xlo xhi
11.246593 53.753407 ylo yhi
1.27354 64.665814 zlo zhi

Masses

1 12.01
2 1.008
3 12.01
4 16
5 14.01
6 1.008
7 16
8 14.01
9 1.008
10 12.01
11 14.01
12 12.01
13 1.008
14 16

Pair Coeffs # lj/cut/coul/long/omp

1 0.086 3.39967
2 0.015 2.59964
3 0.086 3.39967
4 0.21 2.95992
5 0.17 3.25
6 0.0157 1.06908
7 0.2104 3.06647
8 0.17 3.25
9 0 0
10 0.086 3.39967
11 0.17 3.25
12 0.086 3.39967
13 0.0157 1.06908
14 0.2104 3.06647

Atoms # full

1 1 6 0.157 15.65485561257787 18.43061925888287 14.0214192858812 0 0 0
2 1 1 0.04 11.85929119376748 13.946699286872452 14.493121604422226 0 0 0
3 1 1 -0.0521 12.896826051066663 12.287705837457942 16.50592484583155 0 0 0
4 1 2 0.0866 14.47545324831793 15.299469815911957 13.918582053168038 0 0 0
5 1 4 -0.2623 18.056676533483706 19.26790856180385 13.2602987878508 0 0 0
6 1 1 -0.0632 17.114970014959685 14.13043620340239 15.729344670332049 0 0 0
7 1 1 0.0077 17.775351985723386 15.354084966056048 15.943985404252638 0 0 0
8 1 1 -0.0444 17.26743751182292 16.54265421446376 15.403043930678875 0 0 0
9 1 1 -0.0091 16.10413094770728 16.4941238887743 14.615252096005534 0 0 0
10 1 8 -0.3506 15.779848159773193 17.491340439181837 13.678504051212423 0 0 0
11 1 2 0.0896 17.86141384770228 17.449533211625283 15.481596157364082 0 0 0
12 1 2 0.0 11.678672843280403 18.01697033725135 12.22245882248092 0 0 0
13 1 1 0.04 13.00990482833897 11.928098121417337 15.147331479045345 0 0 0
14 1 1 -0.0645 15.377252054787608 15.306770904528882 14.517669859495054 0 0 0
15 1 1 -0.051 12.41991947809448 12.71603028821851 14.158934419429595 0 0 0
16 1 2 0.0839 15.390681789575702 13.180932546830986 14.831697505611844 0 0 0
17 1 2 0.0866 17.559896337497467 13.194521782286673 16.05750187985438 0 0 0
18 1 2 0.0 15.334688488324504 20.11820935651421 13.135352660357027 0 0 0
19 1 2 0.0872 12.457198932750938 12.414249597386485 13.11884156354603 0 0 0
20 1 1 -0.0801 15.897802060221673 14.1151500980335 15.032765899812043 0 0 0
21 1 1 0.0278 12.230021780957921 13.466056492843567 16.883330097203288 0 0 0
22 1 1 -0.0521 11.69822988937239 14.284941119552792 15.858866435388633 0 0 0
23 1 2 0.0 12.874398819675612 21.484934288565764 9.93763935638604 0 0 0
24 1 6 0.157 15.655517452664332 18.43121564419924 14.026666604904731 0 0 0
25 1 7 -0.379 12.14748850350777 14.893797832939482 12.219295501987213 0 0 0
26 1 12 0.2765 18.294264312558173 20.42521973311324 13.005532702412244 0 0 0
27 1 7 -0.379 18.034697292453025 20.845776673469555 11.710827563639263 0 0 0
6438 1 9 0.2886 13.110517300869455 14.924646522591527 12.37314853576484 0 0 0
3240 1 12 0.2765 11.435725646362242 14.876230656502763 13.388168268299506 1 0 0
28 1 2 0.0866 20.567092319774005 14.652355360718355 12.009286241482709 0 0 0
29 1 1 -0.0801 21.113562030433116 16.255464019021495 13.35207387593966 0 0 0
30 1 1 -0.0521 18.748685173832452 20.952420352096674 15.533537978178337 0 0 0
31 1 11 -0.2514 19.027656784966016 15.396889589683862 16.578160571362556 0 0 0
32 1 2 0.0871 21.46328765915864 15.802717683198159 16.45551988419965 0 0 0
33 1 6 0.1829 19.78867598034597 15.738624534716498 16.00718241775937 0 0 0
34 1 1 0.04 18.57818017498468 21.36916412112389 14.16955095548358 0 0 0
35 1 2 0.0872 18.85322959201156 19.900144697197867 15.798913342018293 0 0 0
36 1 1 -0.0645 21.259147830543885 14.982669014339875 12.77975052456644 0 0 0
37 1 2 0.0866 21.516821608986195 18.731037076615976 16.57079476140639 0 0 0
38 1 2 0.0839 20.284410203917435 16.891451329700807 13.049460965552173 0 0 0
39 1 6 0.157 23.78517756859919 13.077562965916027 12.070278223435398 0 0 0
40 1 11 -0.2514 24.048502522871335 19.223665434404012 15.86690920710355 0 0 0
41 1 10 0.2266 24.1746796232343 16.291232774969515 17.011957940577837 0 0 0
42 1 11 -0.2514 24.10001740464972 16.306664371730573 15.619414464792833 0 0 0
43 1 1 0.0077 23.112568976004223 15.871895898585105 14.700508103721303 0 0 0
44 1 1 0.0078 23.433782106680397 19.629421073462044 17.09608296945431 0 0 0
45 1 6 0.1829 24.93334377346437 16.674750249046568 15.175533307330786 0 0 0
46 1 1 0.04 25.044632913271325 19.277481904941435 11.47919560177676 0 0 0
47 1 6 0.1829 23.355768989573903 19.038277515062266 15.161164995146244 0 0 0
48 1 1 -0.0444 23.259721126278865 14.610551976552209 14.108599602885214 0 0 0
49 1 1 -0.0521 24.669755553161902 19.14769541238437 12.838989590786056 0 0 0
50 1 2 0.0896 24.11177970241118 13.991346305192252 14.374123148718699 0 0 0
51 1 2 0.0839 24.736572166004535 13.604669889805107 17.000160027554 0 0 0
52 1 10 0.2266 25.349303301305547 19.417682937716684 15.384998649696003 0 0 0
53 1 8 -0.3506 22.78524039135563 13.187822563768217 12.196586651434696 0 0 0
54 1 2 0.0872 23.608558828423835 19.142653364587773 13.059103775178263 0 0 0
55 1 2 0.0866 21.99799498450263 17.739218922252533 14.632990526233229 0 0 0
56 1 1 -0.0632 22.077289344253714 16.72515526469603 14.260865907697431 0 0 0
57 1 1 -0.0091 22.39236868552202 14.211236488298544 13.079894507663537 0 0 0
58 1 12 0.2765 24.195527976836036 20.01855937598511 10.478547087773707 0 0 0
59 1 4 -0.2623 23.050269189960677 19.683934201822325 10.24269263948203 0 0 0
60 1 7 -0.379 23.41468074038629 21.222523575914835 14.326286529227477 0 0 0
61 1 6 0.157 23.788744439503592 13.081564111297606 12.07357795415851 0 0 0
62 1 7 -0.379 24.574410482854805 21.32954191338651 10.388514254987882 0 0 0
6440 1 9 0.2886 23.535606213938383 20.451531220065217 14.952458841788903 0 0 0
6441 1 9 0.2886 24.404063692202214 21.685359572887172 9.494036642578768 0 0 0
6439 1 9 0.2886 18.507290681480384 21.631851409112524 11.374626344809352 0 0 0
63 1 1 -0.043 29.021441922345392 18.338525988583783 17.102384697363146 0 0 0
64 1 6 0.1829 32.39106349944708 13.566584887756704 15.1308698270265 0 0 0
65 1 1 0.0278 25.641774665211678 19.287791969712167 13.876156246080239 0 0 0
66 1 6 0.1829 30.083105238122045 15.224891182370708 16.54502234888549 0 0 0
67 1 1 -0.0531 30.104380058884086 13.959657966822501 14.531168689610872 0 0 0
68 1 4 -0.2763 27.547224128166715 16.452419254316123 15.138120817840749 0 0 0
69 1 9 0.2886 29.09528103699041 20.359223235514097 13.307271128072506 0 0 0
70 1 2 0.0896 28.152919143363537 18.44127864031995 16.464330170173245 0 0 0
71 1 10 0.2266 31.786591162167937 12.174748578489703 13.789374518432409 0 0 0
72 1 2 0.0866 26.00597779838056 12.033298938315342 15.595503132746941 0 0 0
73 1 4 -0.2623 25.87187881549241 12.565728880327358 12.083166601886937 0 0 0
74 1 1 -0.0632 26.46311176200217 12.43092286497211 16.49713256968196 0 0 0
75 1 1 -0.0521 26.975119063643124 19.51250266392866 13.456108340487926 0 0 0
76 1 2 0.0872 27.7174941805142 19.796044787363314 14.194485602873891 0 0 0
77 1 6 0.1829 28.446463047210226 21.02135154312017 16.98339020111763 0 0 0
78 1 1 0.04 27.36599978571119 19.381917052314023 12.103733660332793 0 0 0
79 1 4 -0.2763 26.17526673961567 19.955716015065736 16.09720314639545 0 0 0
80 1 12 0.2765 27.018798852921993 12.154308136120441 12.108597940625412 0 0 0
81 1 1 -0.0521 29.430605013860944 12.305599250226376 12.89877475102425 0 0 0
82 1 1 0.0278 30.43505965435667 12.857321783972333 13.71370995312334 0 0 0
83 1 1 -0.0521 27.798530899295397 13.881090743971697 13.780660134335827 0 0 0
84 1 1 0.0278 28.795062292940642 14.491354520803617 14.568233651093983 0 0 0
85 1 10 0.2266 28.479410277408693 15.712754597110736 15.406677247708634 0 0 0
86 1 2 0.0872 29.681571776462746 11.451498356000295 12.278361186832164 0 0 0
87 1 2 0.0871 30.870758231409486 14.4016961810009 15.155434826331332 0 0 0
88 1 1 0.04 28.106630485549086 12.793764382229863 12.935332456201115 0 0 0
89 1 12 0.2765 28.778316420926977 19.599436498137713 11.631332769586283 0 0 0
90 1 7 -0.379 29.633224260519825 20.11344710242433 12.5373781611537 0 0 0
91 1 2 0.0872 26.774482414735534 14.24227818803561 13.840380547704509 0 0 0
92 1 11 -0.2514 29.396887372427013 15.953999471983192 16.422768226376963 0 0 0
93 1 1 0.0078 27.764785478659704 12.066676395131662 16.87657268152861 0 0 0
94 1 2 0.0872 26.66157696647235 19.083879041068986 10.081960258446433 0 0 0
95 1 4 -0.2623 29.110442576926943 19.48270211184564 10.46469967997554 0 0 0
96 1 1 -0.051 26.388242455456865 19.1386209677053 11.133639136833764 0 0 0
97 1 1 0.0277 14.540675266185593 16.774741366244665 21.72798745341662 0 0 0
98 1 1 -0.0531 14.638790046677164 15.380895770901809 21.51329626008621 0 0 0
99 1 2 0.0871 13.732663583180761 14.803974917498197 21.36771843938274 0 0 0
100 1 1 0.0078 11.617071155441842 18.317387189708963 17.503436997218092 0 0 0
101 1 4 -0.2763 18.31030148857476 15.249763277697319 18.7289888472218 0 0 0
102 1 2 0.0866 12.710882087559884 20.91566362117872 20.216596898576725 0 0 0
103 1 6 0.1829 17.984264738515066 13.419953853404724 20.804449048761324 0 0 0
104 1 1 -0.0632 13.825442004790217 16.814765349546892 18.372065312609532 0 0 0
105 1 2 0.0866 14.672320166260985 16.246456812921082 18.74842215257238 0 0 0
106 1 2 0.0839 14.987509553431295 18.598768362418575 17.991386328414084 0 0 0
107 1 4 -0.2763 11.99124509904129 12.791128220806275 19.137363870651285 0 0 0
108 1 2 0.0872 13.349343159312287 11.667867163377176 17.281968873553446 0 0 0
109 1 10 0.2266 15.96041809004742 13.2628241965597 21.024530297977027 0 0 0
110 1 1 -0.0801 13.997982693439349 18.150654835664838 17.97126914673006 0 0 0
111 1 4 -0.2763 12.144645144006509 16.820218114222776 21.757583130897885 0 0 0
112 1 11 -0.2514 17.221928972254766 12.761688030194167 20.715305841718173 0 0 0
113 1 1 -0.0632 12.889512233768437 18.90520442194138 17.548474741500836 0 0 0
114 1 1 -0.0632 12.012201347913956 20.836497663698047 21.043207007653848 0 0 0
115 1 1 0.0078 12.548268082887025 16.23078316168133 18.33713193330184 0 0 0
116 1 10 0.2266 12.090112255763191 13.726937280809814 18.368715643898334 0 0 0
117 1 6 0.1829 12.405025015658781 14.971996287059483 19.937279456408447 0 0 0
118 1 11 -0.2514 12.336728701322263 14.96854847850591 18.92710515647972 0 0 0
119 1 1 0.0078 17.558989107521082 11.562782023421386 20.014808952220005 0 0 0
120 1 10 0.2266 13.184160158062516 17.456366820111185 21.774178378004684 0 0 0
121 1 1 0.0277 15.88896076250662 14.725319498074361 21.4342824834316 0 0 0
122 1 1 -0.043 11.445249651984096 16.986415662223422 17.91365129854028 0 0 0
123 1 4 -0.2763 14.948543546105874 12.608998959413315 20.83744259122618 0 0 0
124 1 1 -0.0531 15.73228691107583 17.502880204206495 21.927040488954038 0 0 0
125 1 6 0.1829 14.072813038739714 19.29939719363832 21.62330864179656 0 0 0
126 1 11 -0.2514 13.186209690886404 18.84520208965104 21.791840618793707 0 0 0
127 1 1 -0.0531 17.051907403955223 15.477027111993841 21.707821398998945 0 0 0
128 1 6 0.1829 13.620164430897784 12.488430509460102 23.48858197770477 0 0 0
129 1 1 0.0078 15.292927897080874 20.37407883055746 24.973251191331407 0 0 0
130 1 2 0.0871 12.285260502635888 13.182685524640235 22.569745567711244 0 0 0
131 1 1 -0.043 16.56609693896877 12.778491734905817 24.829582334129867 0 0 0
132 1 2 0.0896 16.742793098606708 13.792939304768938 24.486085072909052 0 0 0
133 1 11 -0.2514 18.17959710093152 18.581732645713334 23.377134052266307 0 0 0
134 1 10 0.2266 13.839562233862043 14.218165270414167 24.58058845674507 0 0 0
135 1 2 0.0871 15.692527531656356 18.575892569221875 22.076565239387534 0 0 0
136 1 1 0.0277 12.48314675593391 14.670051690893883 24.114175008015778 0 0 0
137 1 1 0.0078 17.09790637757586 18.885159287512238 24.24672511231344 0 0 0
138 1 1 -0.0531 11.841373679995984 15.718771980331095 24.787181541872357 0 0 0
139 1 1 0.0078 15.301135691525202 12.200427268608527 24.642412869414088 0 0 0
140 1 11 -0.2514 14.522828980739481 21.56833776576473 24.875750745526336 0 0 0
141 1 1 0.0078 12.090716432522154 19.741342938784047 21.920497244858375 0 0 0
142 1 2 0.0896 16.86396000911806 20.924253237633092 23.571459438807395 0 0 0
143 1 1 -0.043 16.469447572715026 20.147584477855144 24.22067283392679 0 0 0
144 1 11 -0.2514 14.237859623744903 12.970687801576867 24.126873079536537 0 0 0
145 1 10 0.2266 18.24031986706206 17.600343167759505 22.39040002588445 0 0 0
146 1 1 0.0277 16.981561575009223 16.854677820903888 22.000318620865613 0 0 0
147 1 1 -0.0531 11.77872652373584 13.964162207487133 23.123543860283018 0 0 0
148 1 2 0.0871 18.021254049082213 14.990107422086231 21.71490978158368 0 0 0
149 1 2 0.0866 13.009345217542723 19.94222399350958 17.24951392197832 0 0 0
150 1 1 -0.0531 20.96547493292243 15.204080133299211 19.748038153905913 0 0 0
151 1 2 0.0866 18.969123202745575 12.603676079985577 18.740783317494042 0 0 0
152 1 1 -0.0632 18.530653781820423 11.645735767442611 18.999363949101305 0 0 0
153 1 2 0.0871 20.170935512029217 14.986710792703652 20.45505244490765 0 0 0
154 1 1 0.0277 20.668234654282987 15.385118557116968 18.389692240174632 0 0 0
155 1 4 -0.2763 18.420687216708327 20.616222471179476 18.556069432772944 0 0 0
156 1 1 -0.0632 20.052185345134408 21.281240758588773 20.974098077822568 0 0 0
157 1 2 0.0839 20.74569567372935 18.569081335014427 18.90694774286824 0 0 0
158 1 1 -0.0531 21.7147614314501 15.654157285766066 17.48493757179248 0 0 0
159 1 10 0.2266 19.235879752934046 15.33332672595255 17.939866139060456 0 0 0
160 1 1 -0.0801 21.679477368693576 19.07733741779761 18.680327637865044 0 0 0
161 1 10 0.2266 19.045850239162796 21.52335831846217 18.03478748668629 0 0 0
162 1 2 0.0866 19.523664074450235 20.401166922198716 20.632897691695355 0 0 0
163 1 1 0.0078 21.902820305457123 12.771705086917471 21.60989954111452 0 0 0
164 1 6 0.1829 19.0694005924969 18.973057170534666 23.657919503124337 0 0 0
165 1 2 0.0896 20.44169848118468 12.402734341033113 23.16341787165885 0 0 0
166 1 1 -0.043 20.904252811214995 12.02115910425731 22.25934845173603 0 0 0
167 1 1 -0.0801 20.42862947046191 21.338751598244418 22.322558443152985 0 0 0
168 1 2 0.0839 20.174773573055873 20.51124098869076 22.975507034975795 0 0 0
169 1 4 -0.2763 19.3251486929929 17.274519694325743 21.939236035395307 0 0 0
170 1 2 0.0896 24.966789101509896 20.979225707925146 17.86547969569925 0 0 0
171 1 1 -0.0531 23.296292512380187 15.696482100490424 19.3000210879949 0 0 0
172 1 11 -0.2514 24.2701061330226 21.097792736176665 20.438369721018052 0 0 0
173 1 1 0.0277 22.278721112408828 15.35887672941743 20.208380907918492 0 0 0
174 1 10 0.2266 22.600459494075047 15.191501316982528 21.662752190261994 0 0 0
175 1 10 0.2266 24.60114009542683 20.6251006469311 21.705722304027514 0 0 0
176 1 2 0.0866 22.12649154221286 19.51398895160348 20.73973018436495 0 0 0
177 1 4 -0.2763 25.21325520420138 16.68914993868231 17.507842642787757 0 0 0
178 1 1 -0.0632 22.459995199359735 19.61526876868734 19.713137809209762 0 0 0
179 1 1 -0.043 24.075510762119418 20.404846747503985 18.088496778973322 0 0 0
180 1 2 0.0866 23.286139076514914 12.835930423400214 19.939830778740657 0 0 0
181 1 2 0.0871 24.292546555305023 15.870478609336013 19.691484081254654 0 0 0
182 1 1 -0.0632 22.500144341047232 12.276689567891781 20.43960165801597 0 0 0
183 1 1 0.0078 23.613375868754037 20.361968620912553 19.414753042178823 0 0 0
184 1 1 0.0277 23.04181084219976 15.83500205097177 17.917810517758692 0 0 0
185 1 1 -0.0632 22.13412602733665 19.152658032704913 17.358663673612554 0 0 0
186 1 11 -0.2514 22.41161923288582 13.939634336218944 22.222647566235032 0 0 0
187 1 2 0.0839 24.6036419920151 13.065302661530955 23.277465547175716 0 0 0
188 1 2 0.0871 25.032954809891276 20.179705458045852 24.37469444099626 0 0 0
189 1 6 0.1829 22.851090433723936 13.786230671078668 23.121645917942843 0 0 0
190 1 1 -0.0531 24.78419239335827 21.216145536158805 24.171200545492713 0 0 0
191 1 1 0.0277 24.657682607517508 21.6404627560772 22.82466531821328 0 0 0
192 1 4 -0.2763 23.166726647693324 16.065970677900776 22.29029181907625 0 0 0
193 1 2 0.0866 22.158562823256716 19.83206146240814 24.766590976545714 0 0 0
194 1 4 -0.2763 24.618262693521007 19.43263166114894 21.954368320916245 0 0 0
195 1 10 0.2266 28.011807955908797 21.17860931105409 18.975896454319116 0 0 0
196 1 1 0.0078 29.68944368998252 17.10272392735936 17.20917410928667 0 0 0
197 1 1 0.0078 29.45640251184806 19.446035214335858 17.8567626570916 0 0 0
198 1 11 -0.2514 28.662882690798934 20.618471780306432 17.886604443512958 0 0 0
199 1 2 0.0866 31.30738611960423 16.04519326836502 18.17874552624577 0 0 0
200 1 1 -0.0531 28.209209294981722 21.36273658148121 21.46834966658367 0 0 0
201 1 2 0.0866 30.978328298188647 20.208376999590964 19.20555863087328 0 0 0
202 1 11 -0.2514 28.01681046611722 13.592197695351357 20.263555925573886 0 0 0
203 1 1 -0.0531 27.94525281871195 19.15202932083239 20.510643159226113 0 0 0
204 1 2 0.0871 27.851579363288963 18.50541237714586 19.64384408769789 0 0 0
205 1 1 0.0277 28.117647213466533 20.53640848832243 20.334059398683433 0 0 0
206 1 1 -0.0801 31.27860616480609 18.118683788124823 18.763023699858564 0 0 0
207 1 1 -0.0801 25.73755768666704 13.315416964500994 17.305356779485397 0 0 0
208 1 1 -0.0632 30.615128415726968 19.348508054144236 18.64899088430756 0 0 0
209 1 1 0.0277 27.786862163222 18.597716669888356 21.793160545239182 0 0 0
210 1 2 0.0871 32.06731379066978 14.623151031837146 21.603229772823386 0 0 0
211 1 1 -0.0632 30.79354611475032 16.996730137965372 18.073928523391853 0 0 0
212 1 2 0.0896 29.304996378808593 12.222953424004123 18.37623054930584 0 0 0
213 1 6 0.1829 28.017592576779542 14.569976770981176 20.538459586781546 0 0 0
214 1 1 -0.0632 26.28997293948623 13.78340726764013 18.513867631548457 0 0 0
215 1 2 0.0866 25.712798522202224 14.435351418139993 19.152388805177946 0 0 0
216 1 1 0.0078 27.558205424918782 13.34765218017408 18.936147276169528 0 0 0
217 1 1 -0.043 28.319665421009077 12.557665878829042 18.06666496466213 0 0 0
218 1 10 0.2266 28.563402980218363 12.713312410542493 21.20354193173891 0 0 0
219 1 4 -0.2763 27.432272664171453 16.40688339528778 20.92933879126748 0 0 0
220 1 4 -0.2763 31.753694435844125 13.152622693515257 19.402147985546648 0 0 0
221 1 2 0.0896 32.10690233814106 12.506918068419195 17.202919219563288 0 0 0
222 1 2 0.0839 32.16662142839409 18.032925652261184 19.38391906849692 0 0 0
223 1 1 0.0078 27.20771308666987 15.252903519294112 23.56953573877223 0 0 0
224 1 1 -0.0531 27.756982078830315 19.463765262958123 22.909041464435766 0 0 0
225 1 6 0.1829 31.36250939299761 15.836125362776535 22.76918510855046 0 0 0
226 1 1 -0.0632 31.157092233011962 20.30629384897458 24.309859857860303 0 0 0
227 1 1 0.0078 27.519570795729297 13.31602652729431 25.023350123538865 0 0 0
228 1 1 -0.0801 25.56162809623687 13.458776191085295 23.592132029266285 0 0 0
229 1 6 0.1829 27.746050671419496 17.201338367941005 23.964623824495042 0 0 0
230 1 10 0.2266 27.58545606663302 17.10620544532223 21.915985271247852 0 0 0
231 1 1 -0.0632 26.039712509085113 14.663098661105213 23.05362719548988 0 0 0
232 1 11 -0.2514 31.76637382080733 16.157983032171195 23.637680179398405 0 0 0
233 1 1 -0.043 27.93172454531295 14.586039789931792 24.574239058930697 0 0 0
234 1 1 -0.0801 31.0123294598692 19.746077254384517 23.03014907950807 0 0 0
235 1 1 -0.0632 31.194604197085194 18.368230902179516 22.83707959368659 0 0 0
236 1 2 0.0896 28.82799730977176 15.04323431337322 24.979897336086974 0 0 0
237 1 2 0.0871 27.550857848135383 19.05207952167705 23.889767072567956 0 0 0
238 1 4 -0.2763 29.151399263366674 13.169444085892202 22.165957797834825 0 0 0
239 1 11 -0.2514 27.576171811409427 16.571286192563363 23.194585669389337 0 0 0
240 1 1 0.0277 28.01758041080425 20.846985382217085 22.7658723791839 0 0 0
241 1 1 0.0078 31.534341085015846 17.536082174030657 23.9177408898622 0 0 0
242 1 2 0.0866 25.471069144227847 15.169843714395308 22.282176782494485 0 0 0
243 1 2 0.0866 25.976176449657913 11.802107332854495 24.914485060482402 0 0 0
244 1 1 -0.0632 26.32152190892653 12.76378067393418 24.543291033548147 0 0 0
245 1 2 0.0866 31.02596994248427 21.37667050986778 24.446876845717643 0 0 0
246 1 2 0.0839 30.758886409867916 20.378699973914483 22.184631432975245 0 0 0
247 1 2 0.0866 31.08693717522952 17.948298053178426 21.84004544570094 0 0 0
248 1 10 0.2266 28.183954243327882 21.763196604176727 23.960202596990076 0 0 0
249 1 1 -0.0531 32.44772113576849 13.776748431896237 22.168906226605436 0 0 0
250 1 2 0.0866 11.699944166533081 11.290558642710396 28.95202191815129 0 0 0
251 1 2 0.0871 14.953913031210563 12.60374101217735 28.875154270029736 0 0 0
252 1 4 -0.2763 12.809475380864354 15.922206643755594 28.63719990874145 0 0 0
253 1 1 -0.0632 16.623057667762108 17.893176426414083 25.117833458600792 0 0 0
254 1 2 0.0866 17.116972479419434 16.92699253258856 25.16227421979666 0 0 0
255 1 1 -0.0531 14.039017503202016 20.839989698047106 31.932367180952458 0 0 0
256 1 6 0.1829 13.301562302599873 12.862761479861224 29.201756752344608 0 0 0
257 1 1 0.0078 17.586217364326675 12.033157380248946 25.44175423366264 0 0 0
258 1 10 0.2266 13.379057254322047 14.865547408071873 28.852323860736398 0 0 0
259 1 2 0.0839 15.134587704357171 17.36964032822815 26.58417964911063 0 0 0
260 1 1 -0.0801 15.497819512052558 18.139060776894198 25.915697186954336 0 0 0
261 1 1 -0.0632 14.822381426448558 19.364317484971114 25.828625538672043 0 0 0
262 1 10 0.2266 17.820830804503107 17.15922179759388 28.499662030123496 0 0 0
263 1 1 0.0278 14.004602578537678 21.23560953108128 30.57969573012506 0 0 0
264 1 11 -0.2514 11.804145560891552 20.2030739214214 30.25163560186342 0 0 0
265 1 1 -0.0801 17.57431126754717 16.122239815185157 32.0096114102809 0 0 0
266 1 1 -0.0531 15.538616944946147 13.515296200111077 28.861160629684218 0 0 0
267 1 4 -0.2763 14.440982081588746 14.807265256737507 25.46406855155985 0 0 0
268 1 2 0.0866 13.918560778974314 19.519066949497663 26.4116489673733 0 0 0
269 1 1 -0.0521 15.215309936253519 21.56363723313202 29.940482087476415 0 0 0
270 1 4 -0.2763 17.310634776455995 18.247444306061247 28.706297556688437 0 0 0
271 1 1 -0.0521 16.46703390024204 20.836470808438598 31.897130833848614 0 0 0
272 1 1 -0.0632 16.382198903945646 15.55271638565971 32.481862823649195 0 0 0
273 1 1 -0.0531 17.69481019198753 14.618905141761857 28.7565885397908 0 0 0
274 1 1 0.04 16.45048113557525 21.32977770843027 30.57551549240476 0 0 0
275 1 11 -0.2514 12.714338144227495 13.681130932470541 29.125898149822348 0 0 0
276 1 6 0.1829 11.991254489057646 19.805589690767146 31.162587964306596 0 0 0
277 1 10 0.2266 17.651504047560984 12.110480714162426 29.009466081148403 0 0 0
278 1 1 0.0277 16.944509775427427 13.43400189441881 28.87328931562891 0 0 0
279 1 10 0.2266 12.756089386719069 21.081052269772837 29.74550437028251 0 0 0
280 1 2 0.0872 17.415501424048138 20.628194222497648 32.38491331577841 0 0 0
281 1 1 -0.0531 15.655777054913534 15.931995727615426 28.790276664489213 0 0 0
282 1 1 0.0277 17.0566698401533 15.876461877066797 28.698197892971802 0 0 0
283 1 1 0.0277 14.882031230424538 14.761392838719123 28.837797324306244 0 0 0
284 1 2 0.0871 15.158901226780428 16.89681793039488 28.773342317388458 0 0 0
285 1 2 0.0871 12.396667728627618 16.26127495232787 25.546624955918833 0 0 0
286 1 4 -0.2763 14.714485086668217 12.048517159577075 31.58147464816228 0 0 0
287 1 4 -0.2763 12.708122382358663 21.493267382219315 28.597032517943006 0 0 0
288 1 2 0.0896 12.06396986352152 18.69375256550067 28.072552523352932 0 0 0
289 1 12 0.2765 17.740759988724072 21.48634640613317 29.820218070580882 0 0 0
290 1 2 0.0839 17.62903887472213 17.192047483828993 31.823428630825454 0 0 0
291 1 1 0.0078 11.330423706581978 13.40040271023568 29.244555675502692 0 0 0
292 1 10 0.2266 14.37067354454184 12.571280821606532 32.62996793334036 0 0 0
293 1 1 0.0078 16.299190352712273 14.170307466887849 32.70292184295956 0 0 0
294 1 1 0.0278 15.262952521393457 20.592039928512634 32.58228895156596 0 0 0
295 1 4 -0.2763 12.439178145106895 15.743287303465923 32.80357532988968 0 0 0
296 1 1 -0.0531 12.11964317462792 11.457167564442088 32.59830250208188 0 0 0
297 1 2 0.0896 17.361107017445928 12.290619396897595 32.63226041147218 0 0 0
298 1 1 -0.043 17.423011868059593 13.360116317310302 32.45264427705765 0 0 0
299 1 2 0.0871 13.115845870840985 20.60132758762156 32.45268508048551 0 0 0
300 1 2 0.0866 15.51331301064767 16.178950554086605 32.652730569458114 0 0 0
301 1 6 0.1829 13.923615728550018 21.750822017271158 25.67024630513397 0 0 0
2681 1 6 0.1829 15.876854706113635 11.255941340368457 29.550118307604574 0 1 0
302 1 2 0.0871 21.10547692112535 15.850770580206488 25.14606945292474 0 0 0
303 1 2 0.0871 18.7788370432623 14.552793575372355 28.73914135967367 0 0 0
304 1 1 -0.0632 19.466454701150774 19.15609914723848 26.74765598319796 0 0 0
305 1 2 0.0866 21.346603884819206 21.560989634764788 31.25073106939664 0 0 0
306 1 1 0.0078 19.93742122488869 17.98026743369024 27.36718107350071 0 0 0
307 1 1 -0.0632 21.558202210458045 19.338450999940356 25.525287127038997 0 0 0
308 1 4 -0.2763 18.853270693622374 12.016096720149399 28.82842619417973 0 0 0
309 1 10 0.2266 20.874205394539324 13.183832717002025 30.996509620227187 0 0 0
310 1 11 -0.2514 19.07273695827994 17.009800405432635 27.932885125860306 0 0 0
311 1 6 0.1829 19.359337076518703 16.056510748756367 27.75096965524482 0 0 0
312 1 10 0.2266 19.434973588026384 13.763371580894887 25.594858980418298 0 0 0
313 1 2 0.0871 21.05205959692841 11.79364873169577 26.622382581297398 0 0 0
314 1 6 0.1829 19.585714161506747 11.731100445758166 25.657501572532247 0 0 0
315 1 1 -0.0632 18.68531695417239 15.305875925493746 31.74030992956937 0 0 0
316 1 4 -0.2623 18.785237369177562 20.988577647142826 30.189580564559897 0 0 0
317 1 11 -0.2514 18.91871322559246 12.481766004060649 25.54123671496066 0 0 0
318 1 4 -0.2763 21.107025481370176 14.166295272340266 30.314948013099237 0 0 0
319 1 1 0.0277 20.91267012128842 13.822504043707207 25.85871855779815 0 0 0
320 1 4 -0.2763 18.7595816306814 14.771132276080937 25.484514009075983 0 0 0
321 1 2 0.0866 19.578370704939783 15.767744505228702 31.337987978461406 0 0 0
322 1 2 0.0866 18.44443663525801 19.495489580045305 26.887252153015847 0 0 0
323 1 1 0.0078 18.624232394911463 13.915282827100693 31.97069589738981 0 0 0
324 1 1 -0.0632 21.413984465821194 20.527117131804793 31.5784440063984 0 0 0
325 1 2 0.0839 19.931561849099925 20.757058380705743 25.37098286456021 0 0 0
326 1 2 0.0896 21.63978583508898 16.710607948286636 27.701381671282885 0 0 0
327 1 1 -0.043 21.267869660410838 17.58120572587069 27.169648288173846 0 0 0
328 1 11 -0.2514 19.736025121127025 13.039834894814431 31.78597018325807 0 0 0
329 1 1 -0.0801 20.293978368687345 19.85316645430409 25.853084300590385 0 0 0
330 1 1 -0.0531 21.59169123683877 12.706700161476375 26.39374555860522 0 0 0
331 1 1 -0.0531 21.62436359838759 15.01065853271534 25.59824356461852 0 0 0
332 1 6 0.1829 19.674143318635828 12.18170077721484 32.32050997644284 0 0 0
333 1 1 0.0078 21.566498729724334 17.84620443587276 32.4062106466641 0 0 0
334 1 11 -0.2514 21.507568160042638 16.51138624740359 32.871609630998975 0 0 0
335 1 1 0.0078 20.97047898933003 20.166144958361198 32.86142457513872 0 0 0
336 1 10 0.2266 24.343745432353618 21.612302066493122 26.682548266554058 0 0 0
337 1 10 0.2266 25.280490917388555 15.642461850484352 29.49347714289283 0 0 0
338 1 6 0.1829 23.93487274515622 18.37100599740528 25.44168574764011 0 0 0
339 1 1 0.0078 22.035586492172943 18.17516279652522 26.153186844388802 0 0 0
340 1 1 0.0078 25.157803111470322 18.111176282122845 29.944361331837367 0 0 0
341 1 1 -0.043 25.083578101455895 18.618363098642742 28.637319927610815 0 0 0
342 1 1 0.0078 25.202706166078865 19.994012356082674 28.394285660747595 0 0 0
343 1 11 -0.2514 24.828478912219786 16.7582152416015 30.17046633378822 0 0 0
344 1 2 0.0896 24.865289382676053 17.942808797513628 27.820609819541303 0 0 0
345 1 1 -0.0632 21.981970258940283 18.204889234868688 31.109403348676558 0 0 0
346 1 1 0.0277 22.992965607663756 15.116141774860207 25.915448085794196 0 0 0
347 1 4 -0.2763 24.835410222550824 11.721415630726824 27.668913990161894 0 0 0
348 1 10 0.2266 23.719353602489296 11.576850337121195 27.208873198668027 0 0 0
349 1 11 -0.2514 25.060769267597312 20.48697294417465 27.063891280211827 0 0 0
350 1 10 0.2266 23.814295401904026 16.367758671999816 25.673715447071814 0 0 0
351 1 2 0.0871 23.569260391462066 13.336424036753101 31.296320909262164 0 0 0
352 1 6 0.1829 23.921975218449 16.63963000822227 30.60951564589552 0 0 0
353 1 1 -0.0531 23.23969089057077 12.306330182367008 31.211569438787784 0 0 0
354 1 2 0.0871 24.715438189161926 14.016311682165053 26.595387486398575 0 0 0
355 1 4 -0.2763 24.52983173566401 14.687372493932104 29.408303159133613 0 0 0
356 1 1 -0.0531 23.64968515885372 13.970590000840195 26.40925353238942 0 0 0
357 1 2 0.0839 22.193460344632964 19.831472821938764 29.687553584275715 0 0 0
358 1 4 -0.2763 25.012767611902483 16.27919532731248 25.48060817409888 0 0 0
359 1 1 0.0277 22.968008663834386 12.764521691397572 26.659264795303073 0 0 0
360 1 11 -0.2514 23.28548521140418 17.653474027541737 25.72894435732084 0 0 0
361 1 2 0.0866 22.340434008393583 17.45468798819841 30.414302547160712 0 0 0
362 1 1 -0.0801 21.89826707177234 19.547220954502908 30.69523040177704 0 0 0
363 1 1 0.0278 21.85833416995054 12.048980872922018 31.07821656336835 0 0 0
364 1 4 -0.2763 23.703056854595985 15.936326980489643 32.826058696005674 0 0 0
365 1 1 0.0278 24.168969778857676 11.248577245784277 31.33592756675556 0 0 0
366 1 1 -0.0632 25.382892701272553 18.976441553169437 31.028192580514503 0 0 0
367 1 6 0.1829 25.492206454875507 19.935761549391025 26.337440058954627 0 0 0
368 1 1 -0.043 32.134184072032994 17.592060604584038 31.82197855159126 0 0 0
369 1 1 -0.0531 27.70940999156328 16.5057696496312 29.236069810791104 0 0 0
370 1 11 -0.2514 27.874727173409973 21.22192677480311 25.19992331327782 0 0 0
371 1 1 -0.0531 27.037585614576706 14.426900613577784 28.19890472885288 0 0 0
372 1 1 -0.0632 30.203807079454617 13.839882608799991 32.06967663358711 0 0 0
373 1 2 0.0871 27.528471686833036 17.347553901173324 29.894229319353045 0 0 0
374 1 1 -0.0531 29.338474693140988 15.151260113304613 28.03490746912383 0 0 0