Random packing of 'slab.lmps', 100 x 'H.lmps', 100 x 'OH.lmps'

1500 atoms
1000 bonds
500 angles
0 dihedrals
0 impropers

16 atom types
19 bond types
24 angle types
42 dihedral types

0.0000000 50.000000 xlo xhi
0.0000000 50.000000 ylo yhi
0.0000000 50.000000 zlo zhi

Masses

 1 12.0100000 # CA (carbon aromatic)
 2 1.0080000 # HA (hydrogen aromatic)
 3 12.0100000 # C (carbon in carboxyl)
 4 16.0000000 # O (oxygen)
 5 14.0100000 # N (nitrogen with 1 hydrogen)
 6 1.0080000 # HN (hydrogen on nitrogen)
 7 16.0000000 # OH (protonated carboxyl oxygen)
 8 14.0100000 # NH (nitrogen with 2 hydrogens)
 9 1.0080000 # HO (hydrogen on oxygen)
 10 12.0100000 # LC (crosslinked carbon)
 11 14.0100000 # LN (crosslinked nitrogen)
 12 12.0100000 # CT (terminated carbon on carboxyl group)
 13 1.0080000 # H (free hydrogen for termination)
 14 16.0000000 # OR (reactive oxygen in free hydroxyl)
 15 15.9994000 # OW (oxygen in water)
 16  1.0080000 # HW (hydrogen in water)

Pair Coeffs

 1 0.0860000 3.3996695 # CA
 2 0.0150000 2.5996425 # HA
 3 0.0860000 3.3996695 # C
 4 0.2100000 2.9599219 # O
 5 0.1700000 3.2499985 # N
 6 0.0157000 1.0690785 # HN
 7 0.2104000 3.0664734 # OH
 8 0.1700000 3.2499985 # NH
 9 0.0000000 0.0000000 # HO
 10 0.0860000 3.3996695 # LC
 11 0.1700000 3.2499985 # LN
 12 0.0860000 3.3996695 # CT
 13 0.0157000 1.0690785 # H
 14 0.2104000 3.0664734 # OR
 15 0.1020000 3.1880000 # OW
 16 0.0000000 0.0000000 # HW

Bond Coeffs

 1 harmonic 4.61100000e+02 1.39840000e+00 # CA-CA
 2 harmonic 3.45900000e+02 1.49060000e+00 # CA-C
 3 harmonic 3.45800000e+02 1.08600000e+00 # CA-HA
 4 harmonic 6.37700000e+02 1.21830000e+00 # C-O
 5 harmonic 4.27600000e+02 1.37890000e+00 # LC-LN
 6 harmonic 3.84200000e+02 1.41210000e+00 # N-CA
 7 harmonic 4.03200000e+02 1.01290000e+00 # N-HN
 8 harmonic 4.17900000e+02 1.38590000e+00 # CA-NH
 9 harmonic 4.04600000e+02 1.01210000e+00 # NH-HN
 10 harmonic 3.45900000e+02 1.49060000e+00 # CA-LC
 11 harmonic 6.37700000e+02 1.21830000e+00 # LC-O
 12 harmonic 3.84200000e+02 1.41210000e+00 # LN-CA
 13 harmonic 4.03200000e+02 1.01290000e+00 # LN-HN
 14 harmonic 4.00100000e+02 1.35130000e+00 # CT-OH
 15 harmonic 3.71400000e+02 9.73000000e-01 # OH-HO
 16 harmonic 3.45900000e+02 1.49060000e+00 # CA-CT
 17 harmonic 6.37700000e+02 1.21830000e+00 # CT-O
 18 harmonic 3.71400000e+02 9.73000000e-01 # OR-HO
 19 harmonic 4.50000000e+02 9.57200000e-01 # OW-HW


Angle Coeffs

 1 harmonic 6.66000000e+01 1.20020052e+02 # CA-CA-CA
 2 harmonic 4.82000000e+01 1.19880051e+02 # CA-CA-HA
 3 harmonic 6.87000000e+01 1.22600053e+02 # CA-C-O
 4 harmonic 6.43000000e+01 1.20330052e+02 # CA-CA-C
 5 harmonic 6.77000000e+01 1.15250050e+02 # CA-LC-LN (TMC-side)
 6 harmonic 6.38000000e+01 1.23710053e+02 # LC-LN-CA (MPD-side)
 7 harmonic 4.83000000e+01 1.17550051e+02 # LC-LN-HN
 8 harmonic 7.42000000e+01 1.23050053e+02 # O-LC-LN
 9 harmonic 6.79000000e+01 1.20190052e+02 # N-CA-CA
 10 harmonic 4.76000000e+01 1.16000050e+02 # CA-N-HN
 11 harmonic 6.83000000e+01 1.20950052e+02 # CA-CA-NH
 12 harmonic 4.84000000e+01 1.16070050e+02 # CA-NH-HN
 13 harmonic 7.79000000e+01 1.30250056e+02 # O-C-O (does not exist in protonated monomers)
 14 harmonic 4.01000000e+01 1.15120050e+02 # HN-NH-HN
 15 harmonic 6.87000000e+01 1.22600053e+02 # CA-LC-O
 16 harmonic 6.43000000e+01 1.20330052e+02 # CA-CA-LC
 17 harmonic 6.79000000e+01 1.20190052e+02 # LN-CA-CA
 18 harmonic 4.76000000e+01 1.16000050e+02 # CA-LN-HN
 19 harmonic 6.92000000e+01 1.13450049e+02 # CA-CT-OH
 20 harmonic 4.99000000e+01 1.06550046e+02 # CT-OH-HO
 21 harmonic 7.59000000e+01 1.22100052e+02 # O-CT-OH
 22 harmonic 6.87000000e+01 1.22600053e+02 # CA-CT-O
 23 harmonic 6.43000000e+01 1.20330052e+02 # CA-CA-CT
 24 harmonic 5.50000000e+01 1.04520000e+02 # HW-OW-HW

Dihedral Coeffs

 1 charmm 3.62500000e+00 2 180 0 # CA-CA-CA-CA
 2 charmm 1.10000000e+00 2 180 0 # CA-CA-CA-HA (improper)
 3 charmm 1.00000000e+00 2 180 0 # CA-CA-C-O
 4 charmm 2.50000000e+00 2 180 0 # CA-LC-LN-CA
 5 charmm 1.05000000e+01 2 180 0 # CA-LC-LN-O
 6 charmm 4.50000000e-01 2 180 0 # LC-LN-CA-CA
 7 multi/harmonic 2.00000000e+00 2.00000000e+00 0.00000000e+00 0.00000000e+00 0.00000000e+00 # O-LC-LN-HN
 8 charmm 1.05000000e+00 2 180 0 # CA-CA-NH-HN
 9 charmm 3.62500000e+00 2 180 0 # CA-CA-CA-C
 10 charmm 3.62500000e+00 2 180 0 # CA-CA-CA-LC
 11 charmm 3.62500000e+00 2 180 0 # CA-CA-CA-HA
 12 charmm 3.62500000e+00 2 180 0 # C-CA-CA-HA
 13 charmm 3.62500000e+00 2 180 0 # LC-CA-CA-HA
 14 charmm 3.62500000e+00 2 180 0 # N-CA-CA-CA
 15 charmm 3.62500000e+00 2 180 0 # LN-CA-CA-CA
 16 charmm 3.62500000e+00 2 180 0 # N-CA-CA-HA
 17 charmm 3.62500000e+00 2 180 0 # LN-CA-CA-HA
 18 charmm 3.62500000e+00 2 180 0 # CA-CA-CA-NH
 19 charmm 3.62500000e+00 2 180 0 # HA-CA-CA-HA
 20 charmm 3.62500000e+00 2 180 0 # HA-CA-CA-NH
 21 charmm 1.10000000e+00 2 180 0 # CA-O-OH-CT (improper) (changed from CA-O-O-C in unprotonated)
 22 charmm 1.10000000e+00 2 180 0 # CA-CA-CA-C (improper)
 23 charmm 1.10000000e+00 2 180 0 # CA-CA-CA-LC (improper)
 24 charmm 1.10000000e+00 2 180 0 # LC-CA-LN-HN (improper)
 25 charmm 1.10000000e+00 2 180 0 # CA-CA-CA-N (improper)
 26 charmm 1.10000000e+00 2 180 0 # CA-CA-CA-LN (improper)
 27 charmm 1.10000000e+00 2 180 0 # CA-CA-CA-NH (improper)
 28 charmm 1.10000000e+00 2 180 0 # CA-HN-NH-HN (improper)
 29 charmm 1.00000000e+00 2 180 0 # CA-CA-LC-O
 30 charmm 1.00000000e+00 2 180 0 # CA-CA-LC-LN
 31 charmm 2.50000000e+00 2 180 0 # CA-LC-LN-HN
 32 charmm 2.50000000e+00 2 180 0 # O-LC-LN-CA
 33 charmm 2.50000000e+00 2 180 0 # O-LC-LN-HN
 34 charmm 4.50000000e-01 2 180 0 # HN-LN-CA-CA
 35 charmm 2.30000000e+00 2 180 0 # CA-CT-OH-HO
 36 multi/harmonic 1.90000000e+00 1.90000000e+00 0.00000000e+00 0.00000000e+00 0.00000000e+00 # O-CT-OH-HO
 37 charmm 4.50000000e-01 2 180 0 # CA-CA-N-HN
 38 charmm 1.00000000e+00 2 180 0 # CA-CA-CT-OH
 39 charmm 1.00000000e+00 2 180 0 # CA-CA-CT-O
 40 charmm 3.62500000e+00 2 180 0 # CA-CA-CA-CT
 41 charmm 3.62500000e+00 2 180 0 # CT-CA-CA-HA
 42 charmm 1.10000000e+00 2 180 0 # CA-CA-CA-CT (improper)

Atoms

 1 1 15 -0.830 24.753 30.436 31.836
 2 1 16 0.415 25.394 29.673 31.369
 3 1 16 0.415 23.835 30.768 31.330
 4 2 15 -0.830 32.625 4.403 7.655
 5 2 16 0.415 33.350 3.744 7.154
 6 2 16 0.415 31.697 3.984 8.071
 7 3 15 -0.830 35.633 38.472 29.356
 8 3 16 0.415 34.744 38.366 29.995
 9 3 16 0.415 36.601 38.747 29.800
 10 4 15 -0.830 24.401 38.429 21.567
 11 4 16 0.415 23.982 38.934 20.684
 12 4 16 0.415 24.550 37.339 21.559
 13 5 15 -0.830 33.078 2.692 44.613
 14 5 16 0.415 32.262 1.966 44.483
 15 5 16 0.415 33.685 2.680 45.530
 16 6 15 -0.830 18.917 11.949 5.579
 17 6 16 0.415 17.949 11.523 5.276
 18 6 16 0.415 19.161 12.993 5.333
 19 7 15 -0.830 34.548 11.679 18.879
 20 7 16 0.415 34.282 12.631 18.395
 21 7 16 0.415 35.449 11.614 19.506
 22 8 15 -0.830 45.062 18.405 1.631
 23 8 16 0.415 44.739 18.213 2.666
 24 8 16 0.415 45.835 19.162 1.428
 25 9 15 -0.830 14.460 8.036 15.193
 26 9 16 0.415 14.619 8.602 14.263
 27 9 16 0.415 14.079 8.546 16.090
 28 10 15 -0.830 10.342 14.389 27.573
 29 10 16 0.415 9.361 14.027 27.229
 30 10 16 0.415 10.441 14.843 28.570
 31 11 15 -0.830 21.780 36.749 47.045
 32 11 16 0.415 22.214 36.685 48.054
 33 11 16 0.415 21.968 35.951 46.312
 34 12 15 -0.830 37.204 11.857 13.990
 35 12 16 0.415 36.813 12.880 14.088
 36 12 16 0.415 38.144 11.676 13.448
 37 13 15 -0.830 30.177 0.029 1.628
 38 13 16 0.415 30.176 0.061 0.528
 39 13 16 0.415 30.198 0.965 2.206
 40 14 15 -0.830 16.692 34.267 33.771
 41 14 16 0.415 17.049 34.342 34.809
 42 14 16 0.415 15.720 33.799 33.555
 43 15 15 -0.830 10.925 21.570 41.095
 44 15 16 0.415 10.085 22.216 40.798
 45 15 16 0.415 11.507 21.805 41.999
 46 16 15 -0.830 43.835 13.633 3.846
 47 16 16 0.415 43.309 14.599 3.888
 48 16 16 0.415 44.733 13.522 3.219
 49 17 15 -0.830 36.768 28.455 21.361
 50 17 16 0.415 37.223 28.350 20.365
 51 17 16 0.415 37.406 28.615 22.243
 52 18 15 -0.830 39.523 45.285 23.513
 53 18 16 0.415 39.371 45.744 24.502
 54 18 16 0.415 38.668 44.862 22.965
 55 19 15 -0.830 8.535 43.949 33.936
 56 19 16 0.415 8.810 42.950 34.307
 57 19 16 0.415 8.814 44.254 32.916
 58 20 15 -0.830 28.072 21.841 3.810
 59 20 16 0.415 28.924 22.310 3.295
 60 20 16 0.415 28.171 21.522 4.858
 61 21 15 -0.830 10.444 28.787 5.861
 62 21 16 0.415 10.745 29.744 6.313
 63 21 16 0.415 9.691 28.769 5.059
 64 22 15 -0.830 38.263 38.273 42.334
 65 22 16 0.415 38.823 39.191 42.103
 66 22 16 0.415 38.136 37.954 43.379
 67 23 15 -0.830 31.347 24.831 27.208
 68 23 16 0.415 31.402 25.730 26.576
 69 23 16 0.415 31.943 24.769 28.130
 70 24 15 -0.830 23.084 22.936 45.905
 71 24 16 0.415 24.087 22.485 45.860
 72 24 16 0.415 22.974 24.020 46.056
 73 25 15 -0.830 48.970 12.494 4.154
 74 25 16 0.415 48.952 13.471 3.648
 75 25 16 0.415 49.860 12.184 4.721
 76 26 15 -0.830 38.064 11.282 34.484
 77 26 16 0.415 38.587 10.369 34.807
 78 26 16 0.415 37.853 11.447 33.417
 79 27 15 -0.830 43.079 18.859 32.660
 80 27 16 0.415 43.367 19.865 32.322
 81 27 16 0.415 42.812 18.086 31.924
 82 28 15 -0.830 29.405 47.093 7.658
 83 28 16 0.415 30.126 46.304 7.919
 84 28 16 0.415 29.226 47.349 6.603
 85 29 15 -0.830 21.593 21.096 37.138
 86 29 16 0.415 20.874 20.285 36.952
 87 29 16 0.415 21.439 21.787 37.980
 88 30 15 -0.830 46.843 10.908 43.687
 89 30 16 0.415 47.361 11.736 44.195
 90 30 16 0.415 45.760 10.968 43.501
 91 31 15 -0.830 28.421 13.270 48.524
 92 31 16 0.415 28.459 13.157 49.618
 93 31 16 0.415 27.632 12.766 47.946
 94 32 15 -0.830 39.722 41.256 4.508
 95 32 16 0.415 38.893 41.482 3.821
 96 32 16 0.415 39.621 41.469 5.582
 97 33 15 -0.830 41.810 33.961 31.162
 98 33 16 0.415 41.196 34.576 31.836
 99 33 16 0.415 42.312 34.423 30.299
 100 34 15 -0.830 20.748 40.951 19.639
 101 34 16 0.415 21.798 41.009 19.314
 102 34 16 0.415 20.501 40.990 20.710
 103 35 15 -0.830 38.435 31.010 13.794
 104 35 16 0.415 38.621 32.078 13.980
 105 35 16 0.415 38.524 30.284 14.617
 106 36 15 -0.830 16.987 3.276 2.189
 107 36 16 0.415 17.661 3.746 1.457
 108 36 16 0.415 16.861 2.183 2.198
 109 37 15 -0.830 3.544 26.878 11.686
 110 37 16 0.415 4.249 26.219 11.156
 111 37 16 0.415 3.072 26.540 12.621
 112 38 15 -0.830 16.228 2.008 10.432
 113 38 16 0.415 16.977 1.432 10.996
 114 38 16 0.415 16.538 2.620 9.572
 115 39 15 -0.830 12.974 39.910 24.467
 116 39 16 0.415 13.745 40.614 24.121
 117 39 16 0.415 11.911 40.189 24.417
 118 40 15 -0.830 39.137 49.460 48.428
 119 40 16 0.415 39.018 48.366 48.415
 120 40 16 0.415 39.644 49.968 47.594
 121 41 15 -0.830 26.428 20.990 43.039
 122 41 16 0.415 27.206 20.524 43.661
 123 41 16 0.415 26.616 21.180 41.972
 124 42 15 -0.830 33.238 2.234 23.280
 125 42 16 0.415 32.827 2.633 22.340
 126 42 16 0.415 33.685 1.229 23.302
 127 43 15 -0.830 26.665 14.066 35.777
 128 43 16 0.415 26.332 13.079 35.423
 129 43 16 0.415 26.879 14.867 35.054
 130 44 15 -0.830 39.672 17.334 23.417
 131 44 16 0.415 40.760 17.391 23.573
 132 44 16 0.415 39.213 17.837 22.552
 133 45 15 -0.830 42.356 43.639 2.872
 134 45 16 0.415 43.323 43.824 2.380
 135 45 16 0.415 42.327 43.207 3.884
 136 46 15 -0.830 20.263 45.612 49.134
 137 46 16 0.415 20.859 45.939 49.999
 138 46 16 0.415 20.305 44.564 48.802
 139 47 15 -0.830 24.161 36.330 42.945
 140 47 16 0.415 25.177 36.446 43.350
 141 47 16 0.415 23.930 36.681 41.928
 142 48 15 -0.830 6.865 11.794 24.477
 143 48 16 0.415 7.298 11.800 25.488
 144 48 16 0.415 6.264 10.936 24.141
 145 49 15 -0.830 26.857 36.100 15.209
 146 49 16 0.415 26.962 35.107 15.669
 147 49 16 0.415 27.431 36.352 14.305
 148 50 15 -0.830 46.691 9.419 24.055
 149 50 16 0.415 45.701 9.402 23.575
 150 50 16 0.415 47.125 10.373 24.389
 151 51 15 -0.830 46.282 4.187 27.747
 152 51 16 0.415 46.694 4.488 26.772
 153 51 16 0.415 46.506 4.780 28.646
 154 52 15 -0.830 11.558 4.262 49.008
 155 52 16 0.415 11.138 4.334 50.023
 156 52 16 0.415 10.937 3.888 48.181
 157 53 15 -0.830 18.299 31.596 26.279
 158 53 16 0.415 17.828 32.590 26.308
 159 53 16 0.415 18.670 31.135 27.206
 160 54 15 -0.830 47.634 46.800 38.141
 161 54 16 0.415 46.737 46.338 37.702
 162 54 16 0.415 47.643 47.084 39.203
 163 55 15 -0.830 18.015 25.842 44.913
 164 55 16 0.415 18.804 25.236 44.444
 165 55 16 0.415 17.797 26.851 44.533
 166 56 15 -0.830 21.946 3.329 29.825
 167 56 16 0.415 21.598 3.978 30.642
 168 56 16 0.415 21.523 3.439 28.816
 169 57 15 -0.830 26.725 7.814 27.179
 170 57 16 0.415 26.377 7.375 28.126
 171 57 16 0.415 27.308 8.747 27.186
 172 58 15 -0.830 29.871 34.119 32.814
 173 58 16 0.415 30.280 35.141 32.847
 174 58 16 0.415 29.495 33.647 33.733
 175 59 15 -0.830 36.459 4.961 37.442
 176 59 16 0.415 35.761 4.187 37.797
 177 59 16 0.415 37.055 4.790 36.534
 178 60 15 -0.830 31.094 46.053 28.161
 179 60 16 0.415 30.820 45.113 28.663
 180 60 16 0.415 30.796 46.227 27.117
 181 61 15 -0.830 29.490 22.511 24.552
 182 61 16 0.415 29.817 22.295 25.580
 183 61 16 0.415 29.616 23.521 24.135
 184 62 15 -0.830 10.113 16.422 34.392
 185 62 16 0.415 9.188 15.833 34.483
 186 62 16 0.415 10.825 16.209 33.581
 187 63 15 -0.830 10.394 29.813 18.715
 188 63 16 0.415 11.351 30.069 18.234
 189 63 16 0.415 10.387 29.318 19.697
 190 64 15 -0.830 45.804 11.774 32.534
 191 64 16 0.415 45.772 12.286 33.508
 192 64 16 0.415 45.508 10.718 32.458
 193 65 15 -0.830 16.319 15.020 11.970
 194 65 16 0.415 16.742 14.326 12.711
 195 65 16 0.415 15.513 14.686 11.300
 196 66 15 -0.830 6.729 45.983 0.679
 197 66 16 0.415 5.636 46.051 0.568
 198 66 16 0.415 7.197 46.192 1.652
 199 67 15 -0.830 12.638 43.711 40.274
 200 67 16 0.415 12.350 42.778 39.767
 201 67 16 0.415 13.526 44.268 39.939
 202 68 15 -0.830 28.672 28.344 0.660
 203 68 16 0.415 27.837 28.170 -0.035
 204 68 16 0.415 28.486 28.814 1.637
 205 69 15 -0.830 7.547 4.983 44.551
 206 69 16 0.415 6.871 4.121 44.654
 207 69 16 0.415 8.191 5.075 43.664
 208 70 15 -0.830 3.576 25.918 23.634
 209 70 16 0.415 2.611 26.033 23.117
 210 70 16 0.415 3.710 25.118 24.378
 211 71 15 -0.830 21.523 45.210 20.532
 212 71 16 0.415 22.140 45.810 21.218
 213 71 16 0.415 21.236 45.617 19.551
 214 72 15 -0.830 25.887 19.808 29.165
 215 72 16 0.415 24.925 20.335 29.072
 216 72 16 0.415 25.937 18.841 29.688
 217 73 15 -0.830 33.502 40.492 8.754
 218 73 16 0.415 32.533 40.873 9.109
 219 73 16 0.415 34.266 40.173 9.478
 220 74 15 -0.830 39.717 5.417 24.951
 221 74 16 0.415 40.377 4.544 25.066
 222 74 16 0.415 38.737 5.436 25.452
 223 75 15 -0.830 28.970 40.317 5.512
 224 75 16 0.415 28.563 39.360 5.873
 225 75 16 0.415 28.935 41.208 6.155
 226 76 15 -0.830 13.957 18.991 24.915
 227 76 16 0.415 14.412 19.583 25.723
 228 76 16 0.415 13.702 17.934 25.083
 229 77 15 -0.830 1.766 12.343 14.095
 230 77 16 0.415 2.191 11.351 13.881
 231 77 16 0.415 1.762 12.730 15.125
 232 78 15 -0.830 31.501 41.218 47.037
 233 78 16 0.415 31.318 40.384 47.731
 234 78 16 0.415 30.745 41.481 46.282
 235 79 15 -0.830 32.896 23.182 47.107
 236 79 16 0.415 33.129 22.152 46.799
 237 79 16 0.415 32.111 23.749 46.584
 238 80 15 -0.830 39.573 26.449 13.945
 239 80 16 0.415 40.427 27.138 13.860
 240 80 16 0.415 38.566 26.781 13.652
 241 81 15 -0.830 23.096 18.165 41.557
 242 81 16 0.415 22.112 18.197 42.047
 243 81 16 0.415 23.182 17.819 40.516
 244 82 15 -0.830 27.523 47.048 17.113
 245 82 16 0.415 28.271 46.261 17.288
 246 82 16 0.415 27.813 47.980 16.606
 247 83 15 -0.830 18.786 6.608 11.500
 248 83 16 0.415 17.752 6.814 11.815
 249 83 16 0.415 19.035 5.651 11.017
 250 84 15 -0.830 7.938 39.909 44.070
 251 84 16 0.415 8.718 39.140 43.960
 252 84 16 0.415 7.877 40.502 44.995
 253 85 15 -0.830 41.788 15.615 44.609
 254 85 16 0.415 41.591 16.201 43.700
 255 85 16 0.415 42.327 14.658 44.542
 256 86 15 -0.830 37.001 1.644 22.385
 257 86 16 0.415 37.066 1.131 23.357
 258 86 16 0.415 37.819 1.549 21.656
 259 87 15 -0.830 45.849 39.661 47.287
 260 87 16 0.415 45.504 39.058 48.141
 261 87 16 0.415 46.258 39.166 46.394
 262 88 15 -0.830 19.513 12.676 2.053
 263 88 16 0.415 19.189 12.986 1.049
 264 88 16 0.415 20.583 12.534 2.267
 265 89 15 -0.830 34.270 14.701 10.833
 266 89 16 0.415 33.741 14.596 11.792
 267 89 16 0.415 35.370 14.678 10.805
 268 90 15 -0.830 10.416 18.049 7.970
 269 90 16 0.415 11.501 18.122 8.139
 270 90 16 0.415 9.716 18.297 8.781
 271 91 15 -0.830 13.999 45.541 31.070
 272 91 16 0.415 13.201 44.835 30.794
 273 91 16 0.415 14.147 46.460 30.483
 274 92 15 -0.830 1.244 6.492 26.072
 275 92 16 0.415 1.131 5.612 26.722
 276 92 16 0.415 1.920 6.452 25.204
 277 93 15 -0.830 39.801 4.696 33.956
 278 93 16 0.415 39.218 5.602 33.732
 279 93 16 0.415 40.554 4.711 34.758
 280 94 15 -0.830 22.250 13.558 18.748
 281 94 16 0.415 21.645 12.743 19.173
 282 94 16 0.415 22.659 13.468 17.731
 283 95 15 -0.830 7.042 31.219 37.049
 284 95 16 0.415 7.980 31.555 36.581
 285 95 16 0.415 6.233 30.807 36.428
 286 96 15 -0.830 28.453 16.877 42.085
 287 96 16 0.415 29.169 17.396 42.740
 288 96 16 0.415 28.348 17.181 41.033
 289 97 15 -0.830 16.584 47.297 5.174
 290 97 16 0.415 15.950 46.500 5.588
 291 97 16 0.415 17.387 47.736 5.786
 292 98 15 -0.830 14.566 11.308 24.241
 293 98 16 0.415 13.872 10.638 23.710
 294 98 16 0.415 14.302 11.698 25.235
 295 99 15 -0.830 1.489 32.119 44.264
 296 99 16 0.415 0.455 32.134 44.640
 297 99 16 0.415 2.099 31.209 44.367
 298 100 15 -0.830 29.631 35.298 8.416
 299 100 16 0.415 29.842 36.264 7.932
 300 100 16 0.415 29.999 35.100 9.433
 301 101 15 -0.830 7.577 9.498 36.938
 302 101 16 0.415 8.191 8.813 36.334
 303 101 16 0.415 6.497 9.317 37.048
 304 102 15 -0.830 40.073 44.573 47.616
 305 102 16 0.415 39.175 45.109 47.273
 306 102 16 0.415 40.569 44.873 48.551
 307 103 15 -0.830 14.751 14.150 37.458
 308 103 16 0.415 13.821 14.401 36.926
 309 103 16 0.415 14.765 14.121 38.557
 310 104 15 -0.830 26.007 15.974 26.401
 311 104 16 0.415 26.972 15.824 26.907
 312 104 16 0.415 25.977 16.399 25.386
 313 105 15 -0.830 7.695 49.915 0.354
 314 105 16 0.415 8.386 49.105 0.076
 315 105 16 0.415 7.246 49.937 1.358
 316 106 15 -0.830 41.308 24.290 26.744
 317 106 16 0.415 40.354 24.773 27.005
 318 106 16 0.415 42.210 24.498 27.338
 319 107 15 -0.830 35.455 36.964 10.522
 320 107 16 0.415 36.510 37.219 10.703
 321 107 16 0.415 35.137 36.607 9.531
 322 108 15 -0.830 37.970 41.254 47.757
 323 108 16 0.415 37.252 42.083 47.837
 324 108 16 0.415 38.731 41.259 46.962
 325 109 15 -0.830 9.273 48.818 25.086
 326 109 16 0.415 8.467 49.526 24.838
 327 109 16 0.415 9.926 49.009 25.951
 328 110 15 -0.830 7.743 14.744 13.541
 329 110 16 0.415 8.196 13.893 13.010
 330 110 16 0.415 8.285 15.229 14.367
 331 111 15 -0.830 19.615 28.733 17.461
 332 111 16 0.415 19.626 29.832 17.404
 333 111 16 0.415 18.941 28.225 18.167
 334 112 15 -0.830 10.234 1.807 23.176
 335 112 16 0.415 11.306 1.620 23.015
 336 112 16 0.415 9.685 2.479 22.500
 337 113 15 -0.830 33.569 8.113 17.541
 338 113 16 0.415 34.623 8.091 17.224
 339 113 16 0.415 33.303 8.482 18.543
 340 114 15 -0.830 12.044 31.284 35.084
 341 114 16 0.415 11.049 31.678 35.340
 342 114 16 0.415 12.780 31.930 34.583
 343 115 15 -0.830 48.084 3.513 23.909
 344 115 16 0.415 48.965 4.131 24.135
 345 115 16 0.415 47.952 3.089 22.902
 346 116 15 -0.830 15.707 11.784 34.209
 347 116 16 0.415 14.928 12.393 33.728
 348 116 16 0.415 16.078 12.053 35.209
 349 117 15 -0.830 11.464 0.565 18.224
 350 117 16 0.415 11.674 1.530 18.710
 351 117 16 0.415 10.572 -0.012 18.510
 352 118 15 -0.830 28.216 31.557 17.745
 353 118 16 0.415 28.828 32.356 17.300
 354 118 16 0.415 28.502 31.119 18.713
 355 119 15 -0.830 46.294 24.876 21.863
 356 119 16 0.415 47.275 25.374 21.895
 357 119 16 0.415 45.946 24.290 22.726
 358 120 15 -0.830 32.140 47.394 16.648
 359 120 16 0.415 32.156 47.963 17.590
 360 120 16 0.415 31.202 47.294 16.082
 361 121 15 -0.830 36.421 4.659 44.582
 362 121 16 0.415 35.392 5.042 44.506
 363 121 16 0.415 36.819 3.991 43.804
 364 122 15 -0.830 11.285 5.951 24.734
 365 122 16 0.415 12.125 6.596 24.437
 366 122 16 0.415 11.478 4.956 25.162
 367 123 15 -0.830 33.085 34.567 3.247
 368 123 16 0.415 33.881 34.179 2.594
 369 123 16 0.415 33.041 35.641 3.483
 370 124 15 -0.830 32.943 29.706 20.391
 371 124 16 0.415 32.255 29.762 21.247
 372 124 16 0.415 33.033 28.771 19.818
 373 125 15 -0.830 0.849 10.214 42.934
 374 125 16 0.415 1.243 9.233 42.629
 375 125 16 0.415 0.372 10.334 43.918
 376 126 15 -0.830 1.601 36.958 29.409
 377 126 16 0.415 1.338 36.257 28.603
 378 126 16 0.415 2.543 36.830 29.964
 379 127 15 -0.830 45.306 47.667 12.713
 380 127 16 0.415 44.492 46.955 12.917
 381 127 16 0.415 45.338 48.206 11.754
 382 128 15 -0.830 21.496 22.679 13.514
 383 128 16 0.415 21.710 23.416 12.725
 384 128 16 0.415 21.714 22.918 14.565
 385 129 15 -0.830 42.272 33.999 44.263
 386 129 16 0.415 42.126 34.365 43.236
 387 129 16 0.415 43.237 33.561 44.559
 388 130 15 -0.830 18.488 20.381 15.730
 389 130 16 0.415 18.385 21.361 15.241
 390 130 16 0.415 18.983 20.304 16.710
 391 131 15 -0.830 7.830 16.730 49.239
 392 131 16 0.415 8.926 16.672 49.160
 393 131 16 0.415 7.199 16.377 48.410
 394 132 15 -0.830 44.477 45.850 24.624
 395 132 16 0.415 45.155 45.031 24.339
 396 132 16 0.415 44.769 46.894 24.439
 397 133 15 -0.830 26.286 42.107 49.842
 398 133 16 0.415 26.835 41.154 49.824
 399 133 16 0.415 26.699 42.990 49.331
 400 134 15 -0.830 0.356 13.605 26.307
 401 134 16 0.415 0.446 12.541 26.574
 402 134 16 0.415 0.808 13.979 25.377
 403 135 15 -0.830 45.219 4.410 1.847
 404 135 16 0.415 44.833 3.436 1.508
 405 135 16 0.415 45.916 4.977 1.212
 406 136 15 -0.830 3.299 36.091 1.926
 407 136 16 0.415 3.924 36.484 2.742
 408 136 16 0.415 3.198 36.657 0.988
 409 137 15 -0.830 1.250 42.904 44.659
 410 137 16 0.415 1.897 43.730 44.991
 411 137 16 0.415 1.097 42.722 43.585
 412 138 15 -0.830 25.556 18.678 45.853
 413 138 16 0.415 25.854 18.802 46.905
 414 138 16 0.415 24.505 18.818 45.559
 415 139 15 -0.830 48.574 44.446 42.859
 416 139 16 0.415 49.016 43.501 42.509
 417 139 16 0.415 47.480 44.567 42.881
 418 140 15 -0.830 12.728 17.907 12.514
 419 140 16 0.415 12.674 18.910 12.963
 420 140 16 0.415 12.530 17.773 11.440
 421 141 15 -0.830 36.720 34.209 34.402
 422 141 16 0.415 35.865 34.894 34.299
 423 141 16 0.415 36.758 33.283 33.810
 424 142 15 -0.830 8.070 18.683 12.577
 425 142 16 0.415 9.140 18.467 12.438
 426 142 16 0.415 7.751 19.665 12.958
 427 143 15 -0.830 35.509 25.793 41.392
 428 143 16 0.415 36.024 26.547 42.007
 429 143 16 0.415 34.420 25.664 41.479
 430 144 15 -0.830 37.056 38.626 34.048
 431 144 16 0.415 36.246 39.049 33.436
 432 144 16 0.415 36.817 38.027 34.940
 433 145 15 -0.830 21.420 33.752 32.922
 434 145 16 0.415 22.080 33.201 33.608
 435 145 16 0.415 21.583 33.694 31.836
 436 146 15 -0.830 15.464 41.570 39.676
 437 146 16 0.415 16.382 41.935 39.192
 438 146 16 0.415 15.509 41.137 40.687
 439 147 15 -0.830 14.712 25.149 41.896
 440 147 16 0.415 15.733 25.114 41.487
 441 147 16 0.415 14.536 24.911 42.956
 442 148 15 -0.830 41.495 31.053 7.961
 443 148 16 0.415 41.438 32.065 7.532
 444 148 16 0.415 42.464 30.647 8.289
 445 149 15 -0.830 20.707 28.251 47.956
 446 149 16 0.415 20.214 28.530 48.899
 447 149 16 0.415 21.720 28.617 47.735
 448 150 15 -0.830 16.317 40.337 1.299
 449 150 16 0.415 16.708 40.236 0.275
 450 150 16 0.415 15.769 41.245 1.591
 451 151 15 -0.830 38.244 8.466 24.223
 452 151 16 0.415 38.149 9.560 24.303
 453 151 16 0.415 37.567 7.902 23.564
 454 152 15 -0.830 26.597 3.807 30.293
 455 152 16 0.415 27.031 2.926 30.789
 456 152 16 0.415 26.920 4.081 29.278
 457 153 15 -0.830 24.020 27.925 18.821
 458 153 16 0.415 24.723 27.455 19.525
 459 153 16 0.415 24.200 27.861 17.738
 460 154 15 -0.830 38.487 22.918 17.827
 461 154 16 0.415 38.528 21.819 17.839
 462 154 16 0.415 39.292 23.504 18.296
 463 155 15 -0.830 22.788 14.506 37.939
 464 155 16 0.415 22.263 13.654 37.482
 465 155 16 0.415 22.215 15.354 38.342
 466 156 15 -0.830 1.639 10.129 5.135
 467 156 16 0.415 2.437 10.673 4.608
 468 156 16 0.415 1.802 9.771 6.162
 469 157 15 -0.830 15.543 2.205 33.406
 470 157 16 0.415 15.186 3.216 33.162
 471 157 16 0.415 15.043 1.325 32.973
 472 158 15 -0.830 32.681 4.688 36.039
 473 158 16 0.415 33.107 5.615 36.451
 474 158 16 0.415 32.106 4.715 35.102
 475 159 15 -0.830 7.380 27.149 38.536
 476 159 16 0.415 6.306 27.106 38.768
 477 159 16 0.415 8.118 27.179 39.352
 478 160 15 -0.830 16.457 23.552 22.281
 479 160 16 0.415 16.816 22.749 21.619
 480 160 16 0.415 16.204 23.329 23.329
 481 161 15 -0.830 15.441 25.362 37.362
 482 161 16 0.415 14.446 25.156 37.784
 483 161 16 0.415 16.331 25.330 38.009
 484 162 15 -0.830 47.839 6.634 44.946
 485 162 16 0.415 46.913 7.087 45.330
 486 162 16 0.415 47.789 5.800 44.231
 487 163 15 -0.830 23.447 40.185 46.180
 488 163 16 0.415 23.795 39.391 46.857
 489 163 16 0.415 22.883 41.041 46.579
 490 164 15 -0.830 8.187 19.884 27.061
 491 164 16 0.415 8.084 19.298 26.136
 492 164 16 0.415 7.938 20.955 27.066
 493 165 15 -0.830 37.726 26.961 6.202
 494 165 16 0.415 37.126 27.876 6.324
 495 165 16 0.415 37.514 26.077 6.823
 496 166 15 -0.830 17.432 49.650 40.566
 497 166 16 0.415 16.457 49.810 40.082
 498 166 16 0.415 17.597 49.992 41.599
 499 167 15 -0.830 31.616 28.602 2.907
 500 167 16 0.415 32.632 28.825 2.547
 501 167 16 0.415 31.473 27.956 3.786
 502 168 15 -0.830 48.155 42.991 6.806
 503 168 16 0.415 49.121 42.751 6.335
 504 168 16 0.415 47.951 42.671 7.838
 505 169 15 -0.830 7.027 36.003 25.094
 506 169 16 0.415 6.534 35.297 25.780
 507 169 16 0.415 8.109 35.927 24.910
 508 170 15 -0.830 25.430 5.338 8.400
 509 170 16 0.415 24.412 5.714 8.584
 510 170 16 0.415 25.992 5.681 7.519
 511 171 15 -0.830 19.247 46.267 45.612
 512 171 16 0.415 18.569 45.530 46.066
 513 171 16 0.415 19.887 45.978 44.765
 514 172 15 -0.830 7.215 26.442 33.614
 515 172 16 0.415 7.017 27.410 34.098
 516 172 16 0.415 6.838 26.246 32.599
 517 173 15 -0.830 34.228 29.581 43.623
 518 173 16 0.415 33.834 30.436 44.193
 519 173 16 0.415 33.713 29.243 42.711
 520 174 15 -0.830 23.256 7.676 3.238
 521 174 16 0.415 23.521 6.637 3.487
 522 174 16 0.415 22.609 8.256 3.913
 523 175 15 -0.830 14.474 16.540 44.994
 524 175 16 0.415 14.583 15.896 44.109
 525 175 16 0.415 13.608 16.417 45.661
 526 176 15 -0.830 37.225 3.564 0.889
 527 176 16 0.415 37.363 4.565 0.453
 528 176 16 0.415 37.647 3.332 1.878
 529 177 15 -0.830 25.549 15.584 19.902
 530 177 16 0.415 24.659 16.214 20.047
 531 177 16 0.415 25.942 15.410 18.890
 532 178 15 -0.830 1.298 35.911 7.337
 533 178 16 0.415 0.791 34.973 7.608
 534 178 16 0.415 0.879 36.877 7.657
 535 179 15 -0.830 18.889 48.520 13.407
 536 179 16 0.415 18.215 47.672 13.212
 537 179 16 0.415 19.374 48.623 14.389
 538 180 15 -0.830 20.318 43.814 10.299
 539 180 16 0.415 19.849 44.248 9.404
 540 180 16 0.415 20.913 42.892 10.218
 541 181 15 -0.830 26.263 11.212 6.407
 542 181 16 0.415 25.648 12.028 6.816
 543 181 16 0.415 27.208 10.936 6.898
 544 182 15 -0.830 2.356 12.308 21.264
 545 182 16 0.415 2.153 12.677 22.280
 546 182 16 0.415 3.054 11.471 21.112
 547 183 15 -0.830 5.485 39.042 35.416
 548 183 16 0.415 6.435 39.353 35.874
 549 183 16 0.415 4.645 39.750 35.354
 550 184 15 -0.830 22.048 27.429 8.742
 551 184 16 0.415 21.024 27.140 9.020
 552 184 16 0.415 22.467 27.109 7.776
 553 185 15 -0.830 2.418 5.206 48.406
 554 185 16 0.415 1.753 5.740 49.101
 555 185 16 0.415 2.082 4.272 47.931
 556 186 15 -0.830 17.801 25.066 26.320
 557 186 16 0.415 17.606 26.107 26.618
 558 186 16 0.415 17.008 24.309 26.415
 559 187 15 -0.830 8.893 12.352 47.350
 560 187 16 0.415 9.160 11.411 46.845
 561 187 16 0.415 8.595 12.342 48.409
 562 188 15 -0.830 21.571 37.567 14.491
 563 188 16 0.415 21.091 36.600 14.704
 564 188 16 0.415 21.415 38.057 13.518
 565 189 15 -0.830 44.862 23.216 43.005
 566 189 16 0.415 43.917 23.550 42.550
 567 189 16 0.415 45.183 23.629 43.973
 568 190 15 -0.830 35.569 2.223 12.303
 569 190 16 0.415 36.188 1.321 12.423
 570 190 16 0.415 35.388 2.636 11.299
 571 191 15 -0.830 45.770 7.576 6.292
 572 191 16 0.415 45.285 6.709 5.818
 573 191 16 0.415 45.834 8.533 5.753
 574 192 15 -0.830 4.967 19.138 16.458
 575 192 16 0.415 5.875 19.347 17.042
 576 192 16 0.415 5.023 19.058 15.362
 577 193 15 -0.830 19.033 11.555 48.204
 578 193 16 0.415 19.126 10.687 48.873
 579 193 16 0.415 18.044 11.861 47.833
 580 194 15 -0.830 43.834 12.775 21.532
 581 194 16 0.415 44.641 12.301 22.111
 582 194 16 0.415 42.803 12.765 21.915
 583 195 15 -0.830 45.069 41.670 40.454
 584 195 16 0.415 46.046 41.165 40.473
 585 195 16 0.415 44.724 42.170 39.537
 586 196 15 -0.830 2.869 26.382 43.131
 587 196 16 0.415 3.615 26.191 42.345
 588 196 16 0.415 3.183 26.805 44.097
 589 197 15 -0.830 24.055 43.108 37.931
 590 197 16 0.415 23.591 42.266 38.466
 591 197 16 0.415 25.005 42.963 37.396
 592 198 15 -0.830 13.794 6.725 29.294
 593 198 16 0.415 13.359 7.266 28.440
 594 198 16 0.415 14.824 6.939 29.614
 595 199 15 -0.830 1.680 29.488 7.492
 596 199 16 0.415 2.559 28.963 7.087
 597 199 16 0.415 1.392 29.348 8.544
 598 200 15 -0.830 23.325 21.646 20.531
 599 200 16 0.415 23.544 20.659 20.095
 600 200 16 0.415 24.104 22.422 20.554
 601 201 15 -0.830 29.495 21.567 39.288
 602 201 16 0.415 29.928 22.578 39.339
 603 201 16 0.415 29.441 20.945 40.193
 604 202 15 -0.830 41.070 40.828 36.222
 605 202 16 0.415 41.424 40.012 36.871
 606 202 16 0.415 41.522 40.979 35.231
 607 203 15 -0.830 2.030 5.435 35.238
 608 203 16 0.415 2.250 4.357 35.244
 609 203 16 0.415 1.913 5.977 36.188
 610 204 15 -0.830 6.191 29.390 7.720
 611 204 16 0.415 7.197 28.964 7.845
 612 204 16 0.415 5.963 30.018 6.846
 613 205 15 -0.830 13.188 19.044 17.893
 614 205 16 0.415 12.264 19.432 17.439
 615 205 16 0.415 14.168 19.342 17.490
 616 206 15 -0.830 11.719 21.553 45.777
 617 206 16 0.415 11.193 22.448 45.411
 618 206 16 0.415 12.333 20.955 45.086
 619 207 15 -0.830 16.221 14.755 1.235
 620 207 16 0.415 16.874 15.438 1.798
 621 207 16 0.415 15.959 14.980 0.191
 622 208 15 -0.830 25.065 22.899 16.612
 623 208 16 0.415 25.201 23.376 15.630
 624 208 16 0.415 24.096 22.451 16.877
 625 209 15 -0.830 29.487 5.051 4.505
 626 209 16 0.415 30.175 5.526 3.790
 627 209 16 0.415 28.457 4.811 4.201
 628 210 15 -0.830 3.353 47.594 19.901
 629 210 16 0.415 3.033 46.546 19.800