Random packing of 'slab.lmps', 100 x 'H.lmps', 100 x 'OH.lmps'

30 atoms
20 bonds
10 angles
0 dihedrals
0 impropers

16 atom types
19 bond types
24 angle types
42 dihedral types

0.0000000 10.000000 xlo xhi
0.0000000 10.000000 ylo yhi
0.0000000 10.000000 zlo zhi

Masses

 1 12.0100000 # CA (carbon aromatic)
 2 1.0080000 # HA (hydrogen aromatic)
 3 12.0100000 # C (carbon in carboxyl)
 4 16.0000000 # O (oxygen)
 5 14.0100000 # N (nitrogen with 1 hydrogen)
 6 1.0080000 # HN (hydrogen on nitrogen)
 7 16.0000000 # OH (protonated carboxyl oxygen)
 8 14.0100000 # NH (nitrogen with 2 hydrogens)
 9 1.0080000 # HO (hydrogen on oxygen)
 10 12.0100000 # LC (crosslinked carbon)
 11 14.0100000 # LN (crosslinked nitrogen)
 12 12.0100000 # CT (terminated carbon on carboxyl group)
 13 1.0080000 # H (free hydrogen for termination)
 14 16.0000000 # OR (reactive oxygen in free hydroxyl)
 15 15.9994000 # OW (oxygen in water)
 16  1.0080000 # HW (hydrogen in water)

Pair Coeffs

 1 0.0860000 3.3996695 # CA
 2 0.0150000 2.5996425 # HA
 3 0.0860000 3.3996695 # C
 4 0.2100000 2.9599219 # O
 5 0.1700000 3.2499985 # N
 6 0.0157000 1.0690785 # HN
 7 0.2104000 3.0664734 # OH
 8 0.1700000 3.2499985 # NH
 9 0.0000000 0.0000000 # HO
 10 0.0860000 3.3996695 # LC
 11 0.1700000 3.2499985 # LN
 12 0.0860000 3.3996695 # CT
 13 0.0157000 1.0690785 # H
 14 0.2104000 3.0664734 # OR
 15 0.1020000 3.1880000 # OW
 16 0.0000000 0.0000000 # HW

Bond Coeffs

 1 harmonic 4.61100000e+02 1.39840000e+00 # CA-CA
 2 harmonic 3.45900000e+02 1.49060000e+00 # CA-C
 3 harmonic 3.45800000e+02 1.08600000e+00 # CA-HA
 4 harmonic 6.37700000e+02 1.21830000e+00 # C-O
 5 harmonic 4.27600000e+02 1.37890000e+00 # LC-LN
 6 harmonic 3.84200000e+02 1.41210000e+00 # N-CA
 7 harmonic 4.03200000e+02 1.01290000e+00 # N-HN
 8 harmonic 4.17900000e+02 1.38590000e+00 # CA-NH
 9 harmonic 4.04600000e+02 1.01210000e+00 # NH-HN
 10 harmonic 3.45900000e+02 1.49060000e+00 # CA-LC
 11 harmonic 6.37700000e+02 1.21830000e+00 # LC-O
 12 harmonic 3.84200000e+02 1.41210000e+00 # LN-CA
 13 harmonic 4.03200000e+02 1.01290000e+00 # LN-HN
 14 harmonic 4.00100000e+02 1.35130000e+00 # CT-OH
 15 harmonic 3.71400000e+02 9.73000000e-01 # OH-HO
 16 harmonic 3.45900000e+02 1.49060000e+00 # CA-CT
 17 harmonic 6.37700000e+02 1.21830000e+00 # CT-O
 18 harmonic 3.71400000e+02 9.73000000e-01 # OR-HO
 19 harmonic 4.50000000e+02 9.57200000e-01 # OW-HW


Angle Coeffs

 1 harmonic 6.66000000e+01 1.20020052e+02 # CA-CA-CA
 2 harmonic 4.82000000e+01 1.19880051e+02 # CA-CA-HA
 3 harmonic 6.87000000e+01 1.22600053e+02 # CA-C-O
 4 harmonic 6.43000000e+01 1.20330052e+02 # CA-CA-C
 5 harmonic 6.77000000e+01 1.15250050e+02 # CA-LC-LN (TMC-side)
 6 harmonic 6.38000000e+01 1.23710053e+02 # LC-LN-CA (MPD-side)
 7 harmonic 4.83000000e+01 1.17550051e+02 # LC-LN-HN
 8 harmonic 7.42000000e+01 1.23050053e+02 # O-LC-LN
 9 harmonic 6.79000000e+01 1.20190052e+02 # N-CA-CA
 10 harmonic 4.76000000e+01 1.16000050e+02 # CA-N-HN
 11 harmonic 6.83000000e+01 1.20950052e+02 # CA-CA-NH
 12 harmonic 4.84000000e+01 1.16070050e+02 # CA-NH-HN
 13 harmonic 7.79000000e+01 1.30250056e+02 # O-C-O (does not exist in protonated monomers)
 14 harmonic 4.01000000e+01 1.15120050e+02 # HN-NH-HN
 15 harmonic 6.87000000e+01 1.22600053e+02 # CA-LC-O
 16 harmonic 6.43000000e+01 1.20330052e+02 # CA-CA-LC
 17 harmonic 6.79000000e+01 1.20190052e+02 # LN-CA-CA
 18 harmonic 4.76000000e+01 1.16000050e+02 # CA-LN-HN
 19 harmonic 6.92000000e+01 1.13450049e+02 # CA-CT-OH
 20 harmonic 4.99000000e+01 1.06550046e+02 # CT-OH-HO
 21 harmonic 7.59000000e+01 1.22100052e+02 # O-CT-OH
 22 harmonic 6.87000000e+01 1.22600053e+02 # CA-CT-O
 23 harmonic 6.43000000e+01 1.20330052e+02 # CA-CA-CT
 24 harmonic 5.50000000e+01 1.04520000e+02 # HW-OW-HW

Dihedral Coeffs

 1 charmm 3.62500000e+00 2 180 0 # CA-CA-CA-CA
 2 charmm 1.10000000e+00 2 180 0 # CA-CA-CA-HA (improper)
 3 charmm 1.00000000e+00 2 180 0 # CA-CA-C-O
 4 charmm 2.50000000e+00 2 180 0 # CA-LC-LN-CA
 5 charmm 1.05000000e+01 2 180 0 # CA-LC-LN-O
 6 charmm 4.50000000e-01 2 180 0 # LC-LN-CA-CA
 7 multi/harmonic 2.00000000e+00 2.00000000e+00 0.00000000e+00 0.00000000e+00 0.00000000e+00 # O-LC-LN-HN
 8 charmm 1.05000000e+00 2 180 0 # CA-CA-NH-HN
 9 charmm 3.62500000e+00 2 180 0 # CA-CA-CA-C
 10 charmm 3.62500000e+00 2 180 0 # CA-CA-CA-LC
 11 charmm 3.62500000e+00 2 180 0 # CA-CA-CA-HA
 12 charmm 3.62500000e+00 2 180 0 # C-CA-CA-HA
 13 charmm 3.62500000e+00 2 180 0 # LC-CA-CA-HA
 14 charmm 3.62500000e+00 2 180 0 # N-CA-CA-CA
 15 charmm 3.62500000e+00 2 180 0 # LN-CA-CA-CA
 16 charmm 3.62500000e+00 2 180 0 # N-CA-CA-HA
 17 charmm 3.62500000e+00 2 180 0 # LN-CA-CA-HA
 18 charmm 3.62500000e+00 2 180 0 # CA-CA-CA-NH
 19 charmm 3.62500000e+00 2 180 0 # HA-CA-CA-HA
 20 charmm 3.62500000e+00 2 180 0 # HA-CA-CA-NH
 21 charmm 1.10000000e+00 2 180 0 # CA-O-OH-CT (improper) (changed from CA-O-O-C in unprotonated)
 22 charmm 1.10000000e+00 2 180 0 # CA-CA-CA-C (improper)
 23 charmm 1.10000000e+00 2 180 0 # CA-CA-CA-LC (improper)
 24 charmm 1.10000000e+00 2 180 0 # LC-CA-LN-HN (improper)
 25 charmm 1.10000000e+00 2 180 0 # CA-CA-CA-N (improper)
 26 charmm 1.10000000e+00 2 180 0 # CA-CA-CA-LN (improper)
 27 charmm 1.10000000e+00 2 180 0 # CA-CA-CA-NH (improper)
 28 charmm 1.10000000e+00 2 180 0 # CA-HN-NH-HN (improper)
 29 charmm 1.00000000e+00 2 180 0 # CA-CA-LC-O
 30 charmm 1.00000000e+00 2 180 0 # CA-CA-LC-LN
 31 charmm 2.50000000e+00 2 180 0 # CA-LC-LN-HN
 32 charmm 2.50000000e+00 2 180 0 # O-LC-LN-CA
 33 charmm 2.50000000e+00 2 180 0 # O-LC-LN-HN
 34 charmm 4.50000000e-01 2 180 0 # HN-LN-CA-CA
 35 charmm 2.30000000e+00 2 180 0 # CA-CT-OH-HO
 36 multi/harmonic 1.90000000e+00 1.90000000e+00 0.00000000e+00 0.00000000e+00 0.00000000e+00 # O-CT-OH-HO
 37 charmm 4.50000000e-01 2 180 0 # CA-CA-N-HN
 38 charmm 1.00000000e+00 2 180 0 # CA-CA-CT-OH
 39 charmm 1.00000000e+00 2 180 0 # CA-CA-CT-O
 40 charmm 3.62500000e+00 2 180 0 # CA-CA-CA-CT
 41 charmm 3.62500000e+00 2 180 0 # CT-CA-CA-HA
 42 charmm 1.10000000e+00 2 180 0 # CA-CA-CA-CT (improper)

Atoms

 1 1 15 -0.830 5.909 1.219 3.473
 2 1 16 0.415 -6.311 0.199 3.567
 3 1 16 0.415 -6.179 1.839 2.605
 4 2 15 -0.830 9.822 6.755 9.079
 5 2 16 0.415 9.568 5.686 9.025
 6 2 16 0.415 9.986 7.329 8.155
 7 3 15 -0.830 2.013 0.081 4.720
 8 3 16 0.415 2.904 -0.008 4.081
 9 3 16 0.415 2.114 0.045 5.815
 10 4 15 -0.830 3.757 8.183 6.042
 11 4 16 0.415  4.484 8.853 5.558
 12 4 16 0.415  3.950 7.804 7.057
 13 5 15 -0.830 0.297 4.197 3.194
 14 5 16 0.415  0.832 3.418 3.758
 15 5 16 0.415  0.853 5.035 2.748
 16 6 15 -0.830 6.058 3.827 7.105
 17 6 16 0.415  5.199 3.220 6.781
 18 6 16 0.415  6.957 3.889 6.473
 19 7 15 -0.830 3.657 6.776 2.793
 20 7 16 0.415  2.975 7.634 2.890
 21 7 16 0.415  4.596 6.880 2.229
 22 8 15 -0.830 0.680 5.191 6.553
 23 8 16 0.415  0.994 6.236 6.416
 24 8 16 0.415  0.678 4.744 7.558
 25 9 15 -0.830 2.417 0.828 9.991
 26 9 16 0.415  1.705 1.664 9.923
 27 9 16 0.415  2.412 0.038 9.226
 28 10 15 -0.830 2.312 9.935 10.01
 29 10 16 0.415 1.347 9.819 9.501
 30 10 16 0.415 3.249 9.921 9.441


Bonds

 1 19 1 2
 2 19 1 3
 3 19 4 5
 4 19 4 6
 5 19 7 8
 6 19 7 9
 7 19 10 11
 8 19 10 12
 9 19 13 14
 10 19 13 15
 11 19 16 17
 12 19 16 18
 13 19 19 20
 14 19 19 21
 15 19 22 23
 16 19 22 24
 17 19 25 26
 18 19 25 27
 19 19 28 29
 20 19 28 30


Angles

 1 24 1 2 3
 2 24 4 5 6
 3 24 7 8 9
 4 24 10 11 12
 5 24 13 14 15
 6 24 16 17 18
 7 24 19 20 21
 8 24 22 23 24
 9 24 25 26 27
 10 24 28 29 30
