LAMMPS data file via write_data, version 29 Oct 2020, timestep = 101105

900 atoms
2 atom types
600 bonds
1 bond types
300 angles
1 angle types

-10.0 10.0 xlo xhi
-10.0 10.0 ylo yhi
-10.0 10.0 zlo zhi

Masses

1 1.008
2 15.9994

Pair Coeffs # lj/cut/coul/long/omp

1 0 0
2 0.15027 3.15066

Bond Coeffs # harmonic/omp

1 0 0.9572

Angle Coeffs # harmonic/omp

1 0 104.52

Atoms # full

665 222 1 0.417 -7.347859024328257 -8.283786722495845 -9.249256082061232 0 0 1
43 15 2 -0.834 -4.908915693934151 -6.356488136297253 -7.916357399664768 0 0 0
44 15 1 0.417 -5.267129408207881 -5.4760868661621185 -7.8031832897445135 0 0 0
554 185 1 0.417 -6.640587164651452 -8.414352167262285 -5.449170603169655 0 0 0
555 185 1 0.417 -6.950439925556364 -8.583816296690003 -5.3656238130505045 0 0 0
880 294 2 -0.834 -8.10305394438517 -7.927727118672991 -8.013371450747822 0 0 1
882 294 1 0.417 -8.708033722880502 -7.439943883137104 -7.45453440382604 0 0 1
664 222 2 -0.834 -6.703385705701335 -8.527359462066567 -9.91375462887323 0 0 1
881 294 1 0.417 -8.687335137096575 -7.3122330595548775 -7.570636313082751 0 0 1
143 48 1 0.417 -1.6842520333973376 -6.01814930839533 -6.807483803580278 0 0 0
478 160 2 -0.834 -3.768086904488434 -8.576758488789997 -7.812984138155135 0 0 0
479 160 1 0.417 -4.2666274547056116 -7.75964504371087 -7.80913986133244 0 0 0
480 160 1 0.417 -4.264570915267531 -7.765097670397934 -7.917589097603989 0 0 0
666 222 1 0.417 -7.2248434038787215 -8.50926740776087 -9.111266998116582 0 0 1
142 48 2 -0.834 -2.2280043849742994 -6.29892821394617 -6.071461771038106 0 0 0
144 48 1 0.417 -1.5662943561155203 -5.8706424612388854 -6.614548330189493 0 0 0
99 33 1 0.417 -2.5497913197468614 -9.50314166520153 -7.693253895085395 0 0 0
98 33 1 0.417 -2.515879921155158 -9.372942234956747 -7.560206995654915 0 1 0
242 81 1 0.417 -3.4732426834330834 -6.898639204932745 -5.382714951277539 0 0 0
45 15 1 0.417 -5.0360389141157205 -5.41704921086196 -7.783971405673676 0 0 0
745 249 2 -0.834 -6.272915500251279 -9.67928072301589 -6.4330017162728375 0 1 0
243 81 1 0.417 -3.6019148062192565 -6.772396732773439 -5.510970693956212 0 0 0
637 213 2 -0.834 -0.4439006315621213 -5.299104655580691 -7.427597496051753 0 0 0
97 33 2 -0.834 -1.7017600914620337 -9.858464621078152 -7.427132732519481 0 1 0
7 3 2 -0.834 -9.703868397218145 -6.570812788844763 -6.801322045280281 1 0 0
846 282 1 0.417 -1.7786055808483618 -5.225699358806038 -9.936080377724753 0 0 1
845 282 1 0.417 -1.9418668941153086 -5.148934001841758 -9.872081231005385 0 0 1
877 293 2 -0.834 -2.4947973966992025 -6.478082030816562 -9.701002388578294 0 0 1
879 293 1 0.417 -3.298847797351013 -6.9599563805518425 -9.894733959886938 0 0 1
878 293 1 0.417 -3.18712732257004 -7.083752557081163 -9.965717983670395 0 0 1
122 41 1 0.417 -9.087685185010281 -8.531660028899614 -1.7688518243825258 0 0 0
345 115 1 0.417 -8.023479052145648 -6.73252816328301 -4.109469061071478 0 0 0
343 115 2 -0.834 -8.567030526175257 -6.01169036403574 -3.7913865189578724 0 0 0
241 81 2 -0.834 -4.288807163247192 -7.051120117077152 -4.90539325401967 0 0 0
385 129 2 -0.834 -9.302641020224652 -8.97616606224902 -3.14057239564103 0 0 0
386 129 1 0.417 -8.90660105626167 -9.539535683456204 -3.8054023441176885 0 0 0
692 231 1 0.417 -0.6113064916930575 -7.087699249299408 -1.104868907414063 0 0 0
575 192 1 0.417 -5.407556270333975 -6.5227567210115796 -3.9531187789560396 0 0 0
576 192 1 0.417 -5.08739622536235 -6.371616870652125 -3.778926551565387 0 0 0
121 41 2 -0.834 -9.04686825450823 -8.105496557031865 -0.9127265196552214 0 0 0
365 122 1 0.417 -2.189692534628885 -9.791282160855534 -0.7347978317387557 0 0 0
574 192 2 -0.834 -5.788504233152269 -5.846881620352495 -3.392491085061974 0 0 0
452 151 1 0.417 -4.7883211540421495 -7.972069539652776 -1.2294904573366712 0 0 0
693 231 1 0.417 -0.521768280416705 -6.86591039425256 -1.0973625626385286 0 0 0
344 115 1 0.417 -8.01026770133415 -6.6944002103908185 -4.165758356145288 0 0 0
387 129 1 0.417 -9.179922175111987 -9.509789575910142 -3.9256952367322957 0 0 0
23 8 1 0.417 -2.8190789185192364 -6.732225371029421 -0.7082119242583486 0 0 0
451 151 2 -0.834 -4.17854629565633 -7.307449707817906 -0.9090424212357712 0 0 0
453 151 1 0.417 -4.75805907503095 -7.983355614569337 -1.2605363761849178 0 0 0
123 41 1 0.417 -9.031929226607128 -8.556118744410313 -1.7570891861656355 0 0 0
508 170 2 -0.834 -5.735063090956894 -8.870617438230136 -1.8537652791640917 0 1 0
22 8 2 -0.834 -1.8986577861898521 -6.469439979716559 -0.7074078918746861 0 0 0
24 8 1 0.417 -2.8472810734024976 -6.597069667438981 -0.699899751484809 0 0 0
553 185 2 -0.834 -7.071776736600386 -7.749716703132826 -4.911986185740057 0 0 0
510 170 1 0.417 -5.99050246895451 -9.673555204056367 -2.307938731965058 0 1 0
366 122 1 0.417 -2.238702434245195 -9.73269029316998 -0.7393361371864572 0 1 0
509 170 1 0.417 -5.926307881451367 -9.659647692267342 -2.360804263674941 0 1 0
364 122 2 -0.834 -1.983661182010366 -9.640429750662848 -1.657308800296649 0 1 0
713 238 1 0.417 -7.523294339402346 -8.461146287799544 4.539469873255338 0 0 0
64 22 2 -0.834 -9.37257071831917 -7.474986019961804 1.434750731927998 0 0 0
474 158 1 0.417 -6.638100933007472 -6.838196672831552 3.0331525921069327 0 0 0
145 49 2 -0.834 -3.2478725800897803 -8.37574938520262 2.828292018363687 0 0 0
146 49 1 0.417 -3.115276087380196 -7.4941157752415135 2.4799068599230516 0 0 0
147 49 1 0.417 -3.047215146504107 -7.465315748482531 2.61131498219254 0 0 0
678 226 1 0.417 -0.2689462461029753 -7.6119866502209295 3.3552938288500735 0 1 0
513 171 1 0.417 -4.001694384172413 -9.293040639521271 3.909772012062025 0 0 0
714 238 1 0.417 -7.708222302469309 -8.341873425746662 4.526387393317412 0 0 0
59 20 1 0.417 -5.659162065832862 -5.220839272574009 1.4671862582383286 0 0 0
58 20 2 -0.834 -6.075462887454843 -5.856418886672007 2.049392464850612 0 0 0
512 171 1 0.417 -3.643553688819494 -9.306892502539002 4.022783661891917 0 0 0
60 20 1 0.417 -5.522764705872234 -5.527798701281429 1.3403329907211827 0 0 0
472 158 2 -0.834 -6.955265385035615 -7.365457066426088 3.766388619737867 0 0 0
473 158 1 0.417 -6.651887251714951 -6.784896689776817 3.068432175779846 0 0 0
511 171 2 -0.834 -4.086859392095432 -9.745325207730982 4.7490678070456935 0 0 0
274 92 2 -0.834 -3.0391243191318478 -6.015038920881238 2.3087939718937935 0 0 0
219 73 1 0.417 -0.1352920984515691 -5.961018418527177 1.6492147171721185 0 0 0
677 226 1 0.417 -0.007735376455018052 -7.5636405359883 3.3986708104642918 0 1 0
65 22 1 0.417 -9.200119823834111 -7.62455576954612 0.5051694165473968 0 0 0
66 22 1 0.417 -9.265670935302092 -7.797359959059372 0.5398321100649315 0 0 0
3 1 1 0.417 -9.806098938790091 -6.872745648593675 2.7524902031019294 1 0 0
217 73 2 -0.834 -0.22138503550356228 -6.467688153706034 2.4567452898406126 0 0 0
2 1 1 0.417 -9.785661432430778 -6.648022776260877 2.5807893989715818 1 0 0
676 226 2 -0.834 -0.076211472244349 -8.382870181213733 3.888982626628976 0 1 0
275 92 1 0.417 -2.7287562597240975 -5.116728445849314 2.1950319229876407 0 0 0
276 92 1 0.417 -2.898039856089639 -5.071334023123569 2.23297787251064 0 0 0
712 238 2 -0.834 -8.088843119783943 -9.084253047013023 4.995676389055809 0 0 0
534 178 1 0.417 -9.408277096115576 -8.713044189388945 9.037153242378027 0 0 0
667 223 2 -0.834 -1.9028996455920117 -7.161301798820778 7.0460783716222695 0 0 0
606 202 1 0.417 -2.463937292922662 -8.612709757012736 7.229158568489906 0 0 0
891 297 1 0.417 -8.278313733544637 -5.747300666060635 9.147093684874534 0 0 0
280 94 2 -0.834 -9.112238932744884 -5.884073475421157 7.957011220286172 0 0 0
604 202 2 -0.834 -2.52775602306385 -9.56726669379503 7.197852533412772 0 0 0
441 147 1 0.417 -6.3542036708183725 -7.900456197184557 6.758827129491724 0 0 0
890 297 1 0.417 -8.045279910559083 -5.543162599699181 8.98828503343153 0 0 0
158 53 1 0.417 -5.14866547358088 -9.792632986289053 5.931520634946141 0 0 0
532 178 2 -0.834 -8.905484939159665 -9.41048611790978 8.616431628788847 0 0 0
668 223 1 0.417 -1.2221118071199448 -6.5098629414599865 7.214563351589427 0 0 0
157 53 2 -0.834 -5.723458467232776 -9.35864232146894 6.5619942350519995 0 0 0
439 147 2 -0.834 -6.562993036260035 -6.979959714973215 6.917965672664004 0 0 0
159 53 1 0.417 -4.983465512989805 -9.670815291592804 6.041234874047052 0 0 0
318 106 1 0.417 -5.380568864118563 -7.9297502165547 9.370141927245125 0 0 0
317 106 1 0.417 -5.334261018139695 -8.124326755783306 9.500467665703159 0 0 0
380 127 1 0.417 -6.640205468252732 -5.5773174938969 6.45445620019792 0 0 0
316 106 2 -0.834 -4.432367142738735 -7.812070743057454 9.427560386365931 0 0 0
440 147 1 0.417 -6.384011323403674 -7.917699757532586 6.848388345619608 0 0 0
381 127 1 0.417 -6.850536244226029 -5.580964631767162 6.474041499329624 0 0 0
669 223 1 0.417 -1.2973252300230538 -6.450408959481888 7.256180358761 0 0 0
281 94 1 0.417 -9.85669532946883 -6.209859454483463 7.451165372790544 0 0 0
282 94 1 0.417 -9.841099719930885 -6.153097866412058 7.397887194544209 0 0 0
605 202 1 0.417 -2.3378715337347624 -8.644768679552882 7.368653981119956 0 0 0
533 178 1 0.417 -9.370511640497247 -8.651600587617235 8.968674115725362 1 0 0
889 297 2 -0.834 -7.793155648919357 -5.4162843500586995 9.902925474353305 0 0 0
764 255 1 0.417 -1.8821589738532292 -0.6056576622647832 -8.545163021707603 0 0 0
792 264 1 0.417 -4.864094499470759 -3.066772063580338 -7.728822957794018 0 0 1
414 138 1 0.417 -9.08773402883068 -1.487741737770318 -8.346058308788264 1 0 0
240 80 1 0.417 -7.509122714142529 -3.9044443424124027 -6.399639788081012 0 0 0
244 82 2 -0.834 -4.607798374577934 -1.6600653311122526 -7.098056081342876 0 0 0
245 82 1 0.417 -4.4539281036135 -0.7157496626796117 -7.0693559357606235 0 0 0
246 82 1 0.417 -4.497088828152671 -0.7281725875257454 -6.909505915003457 0 0 0
262 88 2 -0.834 -2.0163245099428027 -3.0443266007174894 -6.249631057314841 0 0 0
263 88 1 0.417 -1.8206208591302668 -2.6422843125131106 -7.095972566160788 0 0 0
264 88 1 0.417 -1.932244119603955 -2.5779180154350128 -7.081271222155701 0 0 0
412 138 2 -0.834 -8.338241643921734 -1.780752645556884 -8.864360935811318 0 0 0
791 264 1 0.417 -4.946402580207583 -3.13800582838045 -7.261023934727895 0 0 0
413 138 1 0.417 -9.059024144691012 -1.5254301196725828 -8.28858768202859 1 0 0
790 264 2 -0.834 -5.110970698568108 -3.989464960917854 -7.666198623955603 0 0 0
239 80 1 0.417 -7.5098509017070105 -3.651696970847813 -6.546328689569644 0 0 0
238 80 2 -0.834 -7.336920725725723 -3.3108190022170443 -5.66875858908921 0 0 0
763 255 2 -0.834 -1.6873196380626485 -1.4712471837840635 -8.185963542333846 0 0 0
333 111 1 0.417 -7.9381100555743185 -4.970359649393246 -8.612739621459866 0 0 1
831 277 1 0.417 -7.2640782534001325 -2.386472174185454 -9.65538244482923 0 0 0
765 255 1 0.417 -2.1488085943532704 -0.7974848434048639 -8.685267149765318 0 0 0
331 111 2 -0.834 -7.980011442966402 -4.4913052287494875 -7.785102636018703 0 0 1
332 111 1 0.417 -7.9125038614193555 -4.677688356009296 -8.721551216813992 0 0 1
830 277 1 0.417 -7.440476234130905 -2.4007404357722804 -9.828474733430763 0 0 0
844 282 2 -0.834 -1.4816903814827371 -4.316896771027019 -9.982460000744052 0 0 1
638 213 1 0.417 -0.16738230430070744 -4.565116928378288 -7.97626084555713 0 0 0
323 108 1 0.417 -2.733169753432897 -3.4269599061780114 -5.063128378762113 0 0 0
324 108 1 0.417 -2.6565974215657904 -3.293874158616755 -5.007656867882514 0 0 0
760 254 2 -0.834 -5.765576694780359 -2.0427418608549166 -4.285305572050746 0 0 0
609 203 1 0.417 -4.601221171797538 -4.50677617926689 -0.5429847515981714 0 0 0
761 254 1 0.417 -6.405529262151296 -2.580909076646754 -4.751211785680788 0 0 0
425 142 1 0.417 -3.345549583857887 -3.9194426366606017 -2.574037308681952 0 0 0
850 284 2 -0.834 -9.452047273403009 -3.767913860318915 -3.3702209827020004 0 0 0
580 194 2 -0.834 -3.7150571859778636 -0.6281416077048472 -3.7186561181014333 0 0 0
658 220 2 -0.834 -6.650270416962686 -4.022173438677436 -1.8932858405543957 0 0 0
426 142 1 0.417 -3.3384796464124005 -3.9219372144952267 -2.5722052923327228 0 0 0
672 224 1 0.417 -6.140899606188175 -0.5594898854395671 -0.06694608550106265 0 0 0
695 232 1 0.417 -6.815230149830239 -2.7457988097089476 -1.0751662125466281 0 0 0
582 194 1 0.417 -4.382808234494609 -1.311241085283117 -3.7796113855947895 0 0 0
418 140 2 -0.834 -9.131554238241955 -1.4360218587871483 -3.312718725856066 0 0 0
608 203 1 0.417 -4.428775943844068 -4.454958865311092 -0.45211787229182265 0 0 0
420 140 1 0.417 -9.251383024521996 -2.369648130478553 -3.1388943988026137 0 0 0
807 269 1 0.417 -0.11136049335928119 -0.28310110243059267 -1.7135623355064433 0 0 0
851 284 1 0.417 -9.093743229024845 -4.614956172169656 -3.6354933153879867 1 0 0
696 232 1 0.417 -6.768231270309926 -2.7581959784074743 -1.0536154517741225 0 0 0
694 232 2 -0.834 -6.87170904236821 -2.011353469100441 -0.46391174890063397 0 0 0
581 194 1 0.417 -4.503709813095563 -1.1703723152427097 -3.703010618074238 0 0 0
101 34 1 0.417 -8.385765922387902 -0.17481581791743275 -3.7663138180114397 0 0 0
322 108 2 -0.834 -3.037076651192973 -3.5279509008458185 -4.1610899818769855 0 0 0
102 34 1 0.417 -8.612931845082768 -0.15291068037897038 -3.8830898408811576 0 0 0
424 142 2 -0.834 -3.6672168324286223 -4.218404845421934 -1.7235176896186666 0 0 0
848 283 1 0.417 -1.5889591390196534 -1.5604991356739268 -0.525445013944771 0 0 0
419 140 1 0.417 -9.330061037731294 -2.37239117414918 -3.318995798102537 0 0 0
849 283 1 0.417 -1.4561585907183214 -1.6051843513813033 -0.5452214169566947 0 0 0
806 269 1 0.417 -0.15305730001407414 -0.22029905678584444 -1.6349882867710102 0 0 0
805 269 2 -0.834 -0.9179169817156431 -0.7954095630315732 -1.6566543649058383 0 0 0
762 254 1 0.417 -6.439423023805102 -2.4456654199781096 -4.832859746383848 0 0 0
660 220 1 0.417 -6.400669159343693 -4.777048506252761 -2.426291239615736 0 0 0
852 284 1 0.417 -9.144574663403443 -4.613027959200469 -3.6980541701644207 0 0 0
659 220 1 0.417 -6.571733670930059 -4.726183379053577 -2.5370512142550865 0 0 0
775 259 2 -0.834 -9.978259005769882 -3.5305393965655196 -0.0683608276371288 1 0 0
201 67 1 0.417 -1.9676136872037573 -3.0173814096307834 1.3037799603952538 0 0 0
607 203 2 -0.834 -4.946598231138322 -4.529805897376173 0.3494367697148977 0 0 0
294 98 1 0.417 -7.475964288018219 -3.895675139879237 2.331578108568948 0 0 0
255 85 1 0.417 -8.56103159998748 -0.21081688434790744 1.1835460135253784 1 0 0
109 37 2 -0.834 -4.395498173215185 -1.3693516994895674 4.6966295541021275 0 0 0
200 67 1 0.417 -2.1515001269088976 -2.934001087321617 1.3266305129042841 0 0 0
110 37 1 0.417 -4.092037213355825 -1.1402765538331483 3.818183273327869 0 0 0
199 67 2 -0.834 -2.30755273528087 -3.6832885208035213 1.9014763869215074 0 0 0
293 98 1 0.417 -7.650444142560978 -3.8505250792142593 2.4594168959573355 0 0 0
498 166 1 0.417 -0.3616100699367285 -3.646627924831156 3.9495047995655894 0 0 0
460 154 2 -0.834 -3.5232625543228586 -0.5233356636696002 2.599924664276711 0 0 0
734 245 1 0.417 -6.908033940390365 -4.169142342595899 4.692787158685835 0 0 0
461 154 1 0.417 -2.8299916466627533 -0.018780238666578363 2.1744471522896296 0 0 0
292 98 2 -0.834 -8.113520886359698 -3.8113763330049477 1.6226019853299258 0 0 0
482 161 1 0.417 -9.449534339608263 -1.3369659669484706 3.1414014791912592 1 0 0
253 85 2 -0.834 -8.538898744423653 -0.5639468668791447 2.0729509820102483 1 0 0
735 245 1 0.417 -6.884843465506133 -3.922564497018324 4.749014239705591 0 0 0
733 245 2 -0.834 -7.010649058869042 -3.8262633253071097 3.805016942128181 0 0 0
111 37 1 0.417 -4.084334654112688 -1.152708484238127 3.8177240851132157 0 0 0
497 166 1 0.417 -0.3151248541568237 -3.4242020726445697 4.119878985799014 0 0 0
483 161 1 0.417 -9.593606505802732 -1.3255940680085758 2.92385138268958 1 0 0
254 85 1 0.417 -8.552108288093313 -0.05892820098597086 1.2599236174155517 0 0 0
847 283 2 -0.834 -1.5823881870043977 -2.1114367792879603 0.2572786829481342 0 0 0
776 259 1 0.417 -9.268584585748446 -3.4854277973693093 0.572387960848914 1 0 0
777 259 1 0.417 -9.31562238518986 -3.445126376601953 0.6170946178177908 1 0 0
433 145 2 -0.834 -1.4054532357741916 -3.987940493199246 4.977497356992776 0 0 0
671 224 1 0.417 -6.132898860556842 -0.5763418754059947 0.21611206066612024 0 0 0
370 124 2 -0.834 -1.0591048464965205 -0.924673799178715 6.682325971431632 0 0 0
50 17 1 0.417 -8.409942233662104 -2.060485633942076 6.644021587585354 1 0 0
573 191 1 0.417 -4.171397917216782 -1.3018373921136646 6.180272632483858 0 0 0
434 145 1 0.417 -2.0230360971320205 -4.179852426553963 5.68318358999902 0 0 0
379 127 2 -0.834 -6.799592204198756 -4.729238910880301 6.040221424386016 0 0 0
224 75 1 0.417 -7.591799463940048 -0.06798701323192148 5.198404530692047 0 0 0
826 276 2 -0.834 -3.0122805259631766 -4.369522874963023 6.957859510678032 0 0 0
372 124 1 0.417 -1.0198953066768313 -1.4121006005099903 7.505192653576051 0 0 0
49 17 2 -0.834 -8.01984347605332 -1.3916760953480216 6.081217348178763 1 0 0
828 276 1 0.417 -3.7086290933973447 -4.440529423382556 7.610767305649906 0 0 0
340 114 2 -0.834 -4.763975175503142 -3.9987725028956986 8.773200814481424 0 0 0
341 114 1 0.417 -5.544170750302161 -3.6120349587008618 9.17064362584822 0 0 0
342 114 1 0.417 -5.502255692142629 -3.4372551704565475 9.009573457903233 0 0 0
641 214 1 0.417 -1.1411551592290958 -2.9579714285580008 9.311695498456421 0 0 0
571 191 2 -0.834 -4.189663139209884 -1.42477208255897 7.129369721382713 0 0 0
51 17 1 0.417 -8.511246665730637 -1.9985860107377298 6.634765096908477 1 0 0
189 63 1 0.417 -4.498179402005292 -0.7110739503190759 8.488897095689117 0 0 0
640 214 2 -0.834 -0.9368794329837812 -2.1007919117363376 8.937868590965499 0 0 0
371 124 1 0.417 -1.0042432724163968 -1.5833238331362987 7.374714721010683 0 0 0
721 241 2 -0.834 -9.642505877769672 -2.660003121764918 7.504919557199113 1 0 0
642 214 1 0.417 -1.1368127359918476 -2.854630821163381 9.492832929821999 0 0 0
435 145 1 0.417 -2.0127977123961327 -4.132760772298758 5.7030258701521 0 0 0
572 191 1 0.417 -4.398430031505932 -1.5553195837989724 6.204380216837063 0 0 0
827 276 1 0.417 -3.7653228447702722 -4.415367035463936 7.546975305089621 0 0 0
188 63 1 0.417 -4.66645326638544 -0.813078552597787 8.455320456190007 0 0 0
829 277 2 -0.834 -6.7197943974548995 -2.742396492466351 9.642260945387768 0 0 -1
225 75 1 0.417 -7.711447685320784 -0.010297825164365858 5.337875218904519 0 0 0
187 63 2 -0.834 -4.92941976276563 -0.46430508848212626 9.307046668194138 0 0 0
4 2 2 -0.834 -3.308748635941872 4.2013272748989365 -5.503394334408547 0 0 0
600 200 1 0.417 -8.480357490753779 1.6609828561373983 -5.350778263090884 0 0 0
234 78 1 0.417 -2.5154475835250834 1.6185588025477007 -8.48232892069904 0 0 1
297 99 1 0.417 -2.521268108786895 3.5093253602645818 -6.789786178353719 0 0 1
748 250 2 -0.834 -6.386796255848547 2.879018352692238 -7.286463692887592 0 0 0
183 61 1 0.417 -6.112375150205725 4.252565300185928 -6.657271865667044 0 0 0
338 113 1 0.417 -4.610303059121199 1.276998592617132 -5.8315705877720125 0 0 0
598 200 2 -0.834 -8.813222271882827 2.445922654800946 -5.785867208661285 0 0 0
232 78 2 -0.834 -2.401540856888497 0.7410371164809868 -8.847312215214531 0 0 1
427 143 2 -0.834 -5.605462745858336 1.3840355552213195 -9.224871720649734 0 0 0
296 99 1 0.417 -2.7330120631292445 3.7826917815827423 -7.061987013181118 0 0 0
339 113 1 0.417 -4.787273208063509 1.1378836904721659 -5.811192308170258 0 0 0
428 143 1 0.417 -5.428545693817651 0.7740699547800388 -9.94102405324179 0 0 0
749 250 1 0.417 -6.2867504353663355 2.17241878166488 -7.924381964398052 0 0 0
599 200 1 0.417 -8.401015743916599 1.8813050721170477 -5.132013536768392 0 0 0
295 99 2 -0.834 -2.505102805759826 3.0435465718290007 -7.625860732141162 0 0 0
429 143 1 0.417 -5.364105469258415 0.5731079624001689 -9.672504326858887 0 0 0
750 250 1 0.417 -6.217018469410821 2.26466516259319 -8.000590792419949 0 0 0
233 78 1 0.417 -2.58420570343247 1.6197304144949216 -8.514500675281939 0 0 1
337 113 2 -0.834 -4.382158524049439 0.6967668562531607 -6.557871538870328 0 0 0
354 118 1 0.417 -0.7859210318526939 0.9856313542590526 -5.817646016788873 0 0 0
182 61 1 0.417 -5.861424617674471 4.235473802354617 -6.6898428279517885 0 0 1
88 30 2 -0.834 -9.041369305034705 4.251610088726347 -9.289808456739443 1 0 1
353 118 1 0.417 -0.678332015370722 0.9875808179029486 -5.593850365151351 0 0 0
90 30 1 0.417 -9.893933233116604 3.9449758981169207 -9.5985835564231 1 0 1
546 182 1 0.417 -9.95180948058769 2.587215414074325 -6.928057640981267 0 0 0
89 30 1 0.417 -9.830305214199326 3.952291446750153 -9.741715886803938 1 0 1
411 137 1 0.417 -7.613513500008663 4.917810654610991 -9.008788090010132 0 0 0
181 61 2 -0.834 -5.862661787265799 4.998940317288099 -6.11247882516291 0 0 0
410 137 1 0.417 -7.542774733585337 4.770407125478921 -8.888656911901316 1 0 0
612 204 1 0.417 -5.333863678215722 4.921290703950032 -9.698039706757722 0 0 1
697 233 2 -0.834 -1.9544802808150488 2.525428771787849 -2.1535514122212245 0 0 0
6 2 1 0.417 -3.794342982812961 4.5968096233661955 -4.779499531906066 0 0 0
689 230 1 0.417 -2.561840731925075 0.17707961830356367 -4.186609694673838 0 0 0
699 233 1 0.417 -2.6083836602090535 2.065055750078811 -1.6275296504825176 0 0 0
228 76 1 0.417 -4.653905049447846 4.6284498157821305 -2.500962920886521 0 0 0
475 159 2 -0.834 -3.6703994212070477 1.4852000968499273 -0.7283248406894325 0 0 0
445 149 2 -0.834 -7.459039451849759 3.368618817097513 -0.4548363829195943 0 0 0
126 42 1 0.417 -9.741487952431491 4.378543537062356 -2.069251244543979 0 0 0
698 233 1 0.417 -2.699441698420338 2.2579319046363917 -1.61530448301542 0 0 0
5 2 1 0.417 -3.677359283294978 4.428554956224832 -4.649740063131327 0 0 0
408 136 1 0.417 -5.880377447467727 2.4068699817985846 -3.952950112744065 0 0 0
476 159 1 0.417 -4.4191744900619465 0.9631396777678387 -0.4401917646894821 0 0 0
124 42 2 -0.834 -9.464389889516065 3.855592525972638 -2.8215615409703707 0 0 0
407 136 1 0.417 -5.924325115326195 2.4706222172327075 -4.038626064059176 0 0 0
125 42 1 0.417 -9.868432498845081 4.171242334638476 -2.0132629487217306 0 0 0
361 121 2 -0.834 -6.475033927865092 3.2059976984742278 -2.771024924162961 0 0 0
362 121 1 0.417 -6.824208332371105 3.271879561359394 -1.8822231115045027 0 0 0
363 121 1 0.417 -6.959213951443943 3.3892115301139945 -1.9658949732526476 0 0 0
100 34 2 -0.834 -8.170454194722156 0.570724017967435 -4.326709264412545 0 0 0
477 159 1 0.417 -4.322132565786882 1.0231543129147402 -0.20107776184008613 0 0 0
688 230 2 -0.834 -1.929641728746281 0.6270959981391712 -4.747003780747924 0 0 0
633 211 1 0.417 -0.5729161381134751 2.7226905994229313 -2.747954440971732 0 0 0
542 181 1 0.417 -9.463712452631555 0.8684531301291961 -0.70832943919505 1 0 0
543 181 1 0.417 -9.33201868024867 0.8953181097508573 -0.8019974842472009 1 0 0
690 230 1 0.417 -2.447189759514661 0.0451899618757476 -4.190441744116733 0 0 0
632 211 1 0.417 -0.6179027738731163 2.6965285582931595 -2.8500890333423916 0 0 0
814 272 2 -0.834 -4.7348570300075945 4.4810085272779805 -0.9009270366614435 0 0 0
226 76 2 -0.834 -4.339376280885874 4.86746940005188 -3.3728420159535246 0 0 0
227 76 1 0.417 -4.72909406393333 4.504081435335274 -2.577668395303844 0 0 0
541 181 2 -0.834 -8.840667737723056 0.5023632076214694 -0.08061509597031957 1 0 0
406 136 2 -0.834 -5.410963425495306 1.922412434795972 -4.632054823347063 0 0 0
816 272 1 0.417 -4.43062658407943 4.721084902465621 -0.025690476320512932 0 0 0
815 272 1 0.417 -4.659919012537163 4.501640017256982 0.05311201581559206 0 0 0
80 27 1 0.417 -8.721061669512926 1.7929956188239016 4.138562860140662 0 0 0
79 27 2 -0.834 -9.619556321814319 2.0191260753946016 3.898137784339187 0 0 0
867 289 1 0.417 -1.367215539597569 1.8317184909257962 1.791943567501606 0 0 0
446 149 1 0.417 -7.348918696616412 3.0968847786789024 0.4563528969890668 0 0 0
568 190 2 -0.834 -5.18058448331319 2.10935304363802 3.798434499156087 0 0 0
570 190 1 0.417 -4.671323214537452 1.619398493896605 4.444057724927376 0 0 0
119 40 1 0.417 -6.162640579868477 2.4553808129698584 2.6074341722884484 0 0 0
120 40 1 0.417 -6.142991450990813 2.3746648607502783 2.561145216407589 0 0 0
670 224 2 -0.834 -5.5411605060320746 0.16726062488612348 0.10151327280794563 0 0 0
382 128 2 -0.834 -3.9036718297926734 4.86015120693452 1.3602303461877687 0 0 0
865 289 2 -0.834 -1.6845084094676044 1.0142291993970134 2.17569913227175 0 0 0
118 40 2 -0.834 -6.658013571193795 2.7227435500773827 1.8332542077133382 0 0 0
866 289 1 0.417 -1.2826670630775427 1.8448349608196009 1.92104358850763 0 0 0
569 190 1 0.417 -4.706460613141872 1.8164143724077093 4.576653836840663 0 0 0
19 7 2 -0.834 -1.0857926551272752 3.0953054144278265 0.9237866609057735 0 0 0
447 149 1 0.417 -7.146436900023532 3.1231305661422986 0.41593744836877405 0 0 0
81 27 1 0.417 -8.857894354653716 1.5531468156476138 4.243052588988456 0 0 0
462 154 1 0.417 -2.7454347242492916 0.003840032529825439 2.417437611373255 0 0 0
248 83 1 0.417 -0.20577089654721198 2.257090376802725 4.915932404337134 0 0 0
383 128 1 0.417 -3.4365759478306246 4.9928312860886 2.1851238494410428 0 0 0
738 246 1 0.417 -6.969209207751187 4.994885067017133 4.398185213894989 0 0 0
744 248 1 0.417 -2.5881911371182826 4.966837726065873 4.379509627109521 0 0 0
21 7 1 0.417 -1.2325764937986738 3.9589264631710805 0.5379822688781528 0 0 0
20 7 1 0.417 -1.007662655604493 3.966276741095986 0.5345097636332179 0 0 0
737 246 1 0.417 -7.007147411985523 4.774911050502274 4.286873826671845 0 0 0
223 75 2 -0.834 -7.679255539344517 0.8319138046734008 4.884140630414789 0 0 0
450 150 1 0.417 -8.986299123557016 4.713468116796128 6.3034360164343575 0 0 0
289 97 2 -0.834 -6.3650532775973785 4.343093207414817 5.653039059241176 0 0 0
562 188 2 -0.834 -8.238722644667755 1.2033483951778252 8.733982936991024 0 0 0
812 271 1 0.417 -7.102569164873056 2.073659417110927 8.15740181494983 0 0 0
617 206 1 0.417 -3.9948333393271276 3.7075493851394716 8.734222621320773 0 0 0
808 270 2 -0.834 -4.033464314385807 1.726368266347069 6.029900183207949 0 0 0
449 150 1 0.417 -9.165023811123286 4.727739274983108 6.2444264285551005 0 0 0
369 123 1 0.417 -0.6928595529260194 0.4639235182924507 6.4226714427958305 0 0 0
291 97 1 0.417 -6.5707610764714 4.07565287034542 6.548802314305863 0 0 0
811 271 2 -0.834 -6.662323305086214 2.8328607279901163 7.77526466380649 0 0 0
813 271 1 0.417 -7.261308931755369 2.201565964194833 8.173906089047579 0 0 0
810 270 1 0.417 -3.723682307008518 2.144890056435278 6.833085379470204 0 0 0
616 206 2 -0.834 -3.5813176110717544 3.073995365536244 8.14783886817462 0 0 0
563 188 1 0.417 -9.043918518780506 0.7703414245771829 9.01752555567332 0 0 0
368 123 1 0.417 -0.7397698962897212 0.48910240763682017 6.45917466759509 0 0 0
367 123 2 -0.834 -0.48381097792437316 1.3527233075357326 6.135329247057861 0 0 0
618 206 1 0.417 -3.951263395809659 3.681577013040943 8.78832033516239 0 0 0
290 97 1 0.417 -6.464726514324529 3.7804192312590517 6.420955131290184 0 0 0
610 204 2 -0.834 -4.556450841063216 4.7108883605135725 9.784667362363482 0 0 0
448 150 2 -0.834 -9.181696854222322 3.7786006172601985 6.367266459295454 0 0 0
564 188 1 0.417 -9.173417924980804 0.9973492702374182 8.74585457540009 0 0 0
809 270 1 0.417 -4.003557445456159 2.1233194972286973 6.900398403331877 0 0 0
249 83 1 0.417 -0.017867107913613733 2.232516992623344 5.009869145652689 0 0 0
619 207 2 -0.834 -2.790942712709979 6.912456952206776 -7.525968932737783 0 0 0
148 50 2 -0.834 -4.522063767119796 6.972543516857204 -5.578557085954975 0 0 0
579 193 1 0.417 -9.438378642534941 6.053468292106062 -5.9445609855650385 0 0 0
797 266 1 0.417 -4.8764139656294905 8.887155122966192 -8.999378501746664 0 0 1
747 249 1 0.417 -6.140156852637117 9.735902623466467 -7.179055653842826 0 0 0
796 266 2 -0.834 -5.533305369492913 9.034213141515249 -8.318864381060585 0 0 1
798 266 1 0.417 -4.7497269028606075 8.916047145256861 -8.855775384640454 0 0 1
113 38 1 0.417 -0.36665169063776926 9.63525141032204 -7.610966158192397 0 0 0
114 38 1 0.417 -0.345205392220413 9.644079997013474 -7.476927080085461 0 0 0
149 50 1 0.417 -5.036612212949859 6.179527865605122 -5.728883241539933 0 0 0
106 36 2 -0.834 -8.449887038875776 8.475661787582766 -7.31175107561161 0 0 0
150 50 1 0.417 -5.184684849146467 6.284226688082253 -5.636739130193111 0 0 0
710 237 1 0.417 -2.1878156500278703 6.260194323966856 -8.694050667865765 0 0 1
307 103 2 -0.834 -9.301875982858766 7.64167046662768 -9.489439256629744 1 0 0
620 207 1 0.417 -3.2636254519426284 6.999187847905316 -6.698152152958621 0 0 0
40 14 2 -0.834 -0.8549531306479333 7.56224982050468 -5.323495951634441 0 0 0
194 65 1 0.417 -0.31759743847467287 6.27929201023185 -5.942902475091243 0 0 0
711 237 1 0.417 -2.100066743448843 6.276923090859953 -8.65290216352385 0 0 1
409 137 2 -0.834 -6.702592763807583 5.211811783819371 -9.0131078733086 0 0 0
635 212 1 0.417 -8.845010706064118 9.113477780020478 -5.9640557643856775 0 -1 0
746 249 1 0.417 -5.8695834873059605 9.841189428450331 -7.156608141174505 0 0 0
709 237 2 -0.834 -1.7202593667883297 5.783079854656867 -9.379605029087315 0 0 1
621 207 1 0.417 -3.2440397465654254 7.178197602932371 -6.725770934023478 0 0 0
108 36 1 0.417 -8.650627280699714 8.23793981091049 -8.216971217363973 0 0 0
107 36 1 0.417 -8.708707262377207 8.121030077310904 -8.162327522422647 0 -1 0
577 193 2 -0.834 -8.669436630244586 6.004333300749896 -5.376629847419918 0 0 0
578 193 1 0.417 -9.47094831351948 5.931139588289652 -5.894754873053548 0 0 0
636 212 1 0.417 -8.876004326253872 9.224265265721941 -6.023743624038376 0 0 0
195 65 1 0.417 -0.3990862667867327 6.259584223458088 -6.024225155946949 0 0 0
634 212 2 -0.834 -8.945076015786201 9.60160931790489 -5.146775888700354 0 -1 0
85 29 2 -0.834 -3.807611292874315 8.6478007746478 -9.906192588423767 0 0 1
611 204 1 0.417 -5.3302023687740645 5.093633879491427 -9.801755218328438 0 0 1
41 14 1 0.417 -0.9608739237284071 8.275181519062587 -4.693622133500365 0 0 0
117 39 1 0.417 -1.4973659751184891 5.843915055947823 -1.1623959363609129 0 0 0
173 58 1 0.417 -8.878192848394338 7.100693678409348 -2.0978647953188445 0 0 0