LAMMPS Atom File

         3 atoms
         2 bonds
         1 angles
         0 dihedrals
         0 impropers

         16 atom types
         19 bond types
         24 angle types
         42 dihedral types

     0.02645   35.53280  xlo xhi
     0.02645   35.53280  ylo yhi
     0.02641   35.47360  zlo zhi

Masses # id, mass [g/mol]

 1  12.0100000 # CA (carbon aromatic)
 2   1.0080000 # HA (hydrogen aromatic)
 3  12.0100000 # C  (carbon in carboxyl)
 4  16.0000000 # O  (oxygen)
 5  14.0100000 # N (nitrogen with 1 hydrogen)
 6   1.0080000 # HN (hydrogen on nitrogen)
 7  16.0000000 # OH (protonated carboxyl oxygen)
 8  14.0100000 # NH (nitrogen with 2 hydrogens)
 9   1.0080000 # HO (hydrogen on oxygen)
 10 12.0100000 # LC (crosslinked carbon)
 11 14.0100000 # LN (crosslinked nitrogen)
 12 12.0100000 # CT (terminated carbon on carboxyl group)
 13  1.0080000 # H (free hydrogen for termination)
 14 16.0000000 # OR (reactive oxygen in free hydroxyl)
 15 16.0000000 # OW (oxygen in water)
 16  1.0080000 # HW (hydrogen in water)

Atoms

 1 1 15 0.0000 12.12456 28.09298 22.27452
 2 1 16 0.0000 12.53683 28.75606 22.89928
 3 1 16 0.0000 11.49482 28.56390 21.65678
 

Bonds

 1 19 1 2
 2 19 1 3


Angles

 1 24 2 1 3
 