Random packing of 'slab.lmps', 100 x 'H.lmps', 100 x 'OH.lmps'

12940 atoms
11168 bonds
13130 angles
19475 dihedrals
0 impropers

16 atom types
19 bond types
24 angle types
42 dihedral types

-22.000000 22.000000 xlo xhi
-22.000000 22.000000 ylo yhi
-50.000000 50.000000 zlo zhi

Masses

 1 12.0100000 # CA (carbon aromatic)
 2 1.0080000 # HA (hydrogen aromatic)
 3 12.0100000 # C (carbon in carboxyl)
 4 16.0000000 # O (oxygen)
 5 14.0100000 # N (nitrogen with 1 hydrogen)
 6 1.0080000 # HN (hydrogen on nitrogen)
 7 16.0000000 # OH (protonated carboxyl oxygen)
 8 14.0100000 # NH (nitrogen with 2 hydrogens)
 9 1.0080000 # HO (hydrogen on oxygen)
 10 12.0100000 # LC (crosslinked carbon)
 11 14.0100000 # LN (crosslinked nitrogen)
 12 12.0100000 # CT (terminated carbon on carboxyl group)
 13 1.0080000 # H (free hydrogen for termination)
 14 16.0000000 # OR (reactive oxygen in free hydroxyl)
 15 15.9994000 # OW (oxygen in water)
 16  1.0080000 # HW (hydrogen in water)

Pair Coeffs

 1 0.0860000 3.3996695 # CA
 2 0.0150000 2.5996425 # HA
 3 0.0860000 3.3996695 # C
 4 0.2100000 2.9599219 # O
 5 0.1700000 3.2499985 # N
 6 0.0157000 1.0690785 # HN
 7 0.2104000 3.0664734 # OH
 8 0.1700000 3.2499985 # NH
 9 0.0000000 0.0000000 # HO
 10 0.0860000 3.3996695 # LC
 11 0.1700000 3.2499985 # LN
 12 0.0860000 3.3996695 # CT
 13 0.0157000 1.0690785 # H
 14 0.2104000 3.0664734 # OR
 15 0.1020000 3.1880000 # OW
 16 0.0000000 0.0000000 # HW

Bond Coeffs

 1 harmonic 4.61100000e+02 1.39840000e+00 # CA-CA
 2 harmonic 3.45900000e+02 1.49060000e+00 # CA-C
 3 harmonic 3.45800000e+02 1.08600000e+00 # CA-HA
 4 harmonic 6.37700000e+02 1.21830000e+00 # C-O
 5 harmonic 4.27600000e+02 1.37890000e+00 # LC-LN
 6 harmonic 3.84200000e+02 1.41210000e+00 # N-CA
 7 harmonic 4.03200000e+02 1.01290000e+00 # N-HN
 8 harmonic 4.17900000e+02 1.38590000e+00 # CA-NH
 9 harmonic 4.04600000e+02 1.01210000e+00 # NH-HN
 10 harmonic 3.45900000e+02 1.49060000e+00 # CA-LC
 11 harmonic 6.37700000e+02 1.21830000e+00 # LC-O
 12 harmonic 3.84200000e+02 1.41210000e+00 # LN-CA
 13 harmonic 4.03200000e+02 1.01290000e+00 # LN-HN
 14 harmonic 4.00100000e+02 1.35130000e+00 # CT-OH
 15 harmonic 3.71400000e+02 9.73000000e-01 # OH-HO
 16 harmonic 3.45900000e+02 1.49060000e+00 # CA-CT
 17 harmonic 6.37700000e+02 1.21830000e+00 # CT-O
 18 harmonic 3.71400000e+02 9.73000000e-01 # OR-HO
 19 harmonic 4.50000000e+02 9.57200000e-01 # OW-HW


Angle Coeffs

 1 harmonic 6.66000000e+01 1.20020052e+02 # CA-CA-CA
 2 harmonic 4.82000000e+01 1.19880051e+02 # CA-CA-HA
 3 harmonic 6.87000000e+01 1.22600053e+02 # CA-C-O
 4 harmonic 6.43000000e+01 1.20330052e+02 # CA-CA-C
 5 harmonic 6.77000000e+01 1.15250050e+02 # CA-LC-LN (TMC-side)
 6 harmonic 6.38000000e+01 1.23710053e+02 # LC-LN-CA (MPD-side)
 7 harmonic 4.83000000e+01 1.17550051e+02 # LC-LN-HN
 8 harmonic 7.42000000e+01 1.23050053e+02 # O-LC-LN
 9 harmonic 6.79000000e+01 1.20190052e+02 # N-CA-CA
 10 harmonic 4.76000000e+01 1.16000050e+02 # CA-N-HN
 11 harmonic 6.83000000e+01 1.20950052e+02 # CA-CA-NH
 12 harmonic 4.84000000e+01 1.16070050e+02 # CA-NH-HN
 13 harmonic 7.79000000e+01 1.30250056e+02 # O-C-O (does not exist in protonated monomers)
 14 harmonic 4.01000000e+01 1.15120050e+02 # HN-NH-HN
 15 harmonic 6.87000000e+01 1.22600053e+02 # CA-LC-O
 16 harmonic 6.43000000e+01 1.20330052e+02 # CA-CA-LC
 17 harmonic 6.79000000e+01 1.20190052e+02 # LN-CA-CA
 18 harmonic 4.76000000e+01 1.16000050e+02 # CA-LN-HN
 19 harmonic 6.92000000e+01 1.13450049e+02 # CA-CT-OH
 20 harmonic 4.99000000e+01 1.06550046e+02 # CT-OH-HO
 21 harmonic 7.59000000e+01 1.22100052e+02 # O-CT-OH
 22 harmonic 6.87000000e+01 1.22600053e+02 # CA-CT-O
 23 harmonic 6.43000000e+01 1.20330052e+02 # CA-CA-CT
 24 harmonic 5.50000000e+01 1.04520000e+02 # HW-OW-HW

Dihedral Coeffs

 1 charmm 3.62500000e+00 2 180 0 # CA-CA-CA-CA
 2 charmm 1.10000000e+00 2 180 0 # CA-CA-CA-HA (improper)
 3 charmm 1.00000000e+00 2 180 0 # CA-CA-C-O
 4 charmm 2.50000000e+00 2 180 0 # CA-LC-LN-CA
 5 charmm 1.05000000e+01 2 180 0 # CA-LC-LN-O
 6 charmm 4.50000000e-01 2 180 0 # LC-LN-CA-CA
 7 multi/harmonic 2.00000000e+00 2.00000000e+00 0.00000000e+00 0.00000000e+00 0.00000000e+00 # O-LC-LN-HN
 8 charmm 1.05000000e+00 2 180 0 # CA-CA-NH-HN
 9 charmm 3.62500000e+00 2 180 0 # CA-CA-CA-C
 10 charmm 3.62500000e+00 2 180 0 # CA-CA-CA-LC
 11 charmm 3.62500000e+00 2 180 0 # CA-CA-CA-HA
 12 charmm 3.62500000e+00 2 180 0 # C-CA-CA-HA
 13 charmm 3.62500000e+00 2 180 0 # LC-CA-CA-HA
 14 charmm 3.62500000e+00 2 180 0 # N-CA-CA-CA
 15 charmm 3.62500000e+00 2 180 0 # LN-CA-CA-CA
 16 charmm 3.62500000e+00 2 180 0 # N-CA-CA-HA
 17 charmm 3.62500000e+00 2 180 0 # LN-CA-CA-HA
 18 charmm 3.62500000e+00 2 180 0 # CA-CA-CA-NH
 19 charmm 3.62500000e+00 2 180 0 # HA-CA-CA-HA
 20 charmm 3.62500000e+00 2 180 0 # HA-CA-CA-NH
 21 charmm 1.10000000e+00 2 180 0 # CA-O-OH-CT (improper) (changed from CA-O-O-C in unprotonated)
 22 charmm 1.10000000e+00 2 180 0 # CA-CA-CA-C (improper)
 23 charmm 1.10000000e+00 2 180 0 # CA-CA-CA-LC (improper)
 24 charmm 1.10000000e+00 2 180 0 # LC-CA-LN-HN (improper)
 25 charmm 1.10000000e+00 2 180 0 # CA-CA-CA-N (improper)
 26 charmm 1.10000000e+00 2 180 0 # CA-CA-CA-LN (improper)
 27 charmm 1.10000000e+00 2 180 0 # CA-CA-CA-NH (improper)
 28 charmm 1.10000000e+00 2 180 0 # CA-HN-NH-HN (improper)
 29 charmm 1.00000000e+00 2 180 0 # CA-CA-LC-O
 30 charmm 1.00000000e+00 2 180 0 # CA-CA-LC-LN
 31 charmm 2.50000000e+00 2 180 0 # CA-LC-LN-HN
 32 charmm 2.50000000e+00 2 180 0 # O-LC-LN-CA
 33 charmm 2.50000000e+00 2 180 0 # O-LC-LN-HN
 34 charmm 4.50000000e-01 2 180 0 # HN-LN-CA-CA
 35 charmm 2.30000000e+00 2 180 0 # CA-CT-OH-HO
 36 multi/harmonic 1.90000000e+00 1.90000000e+00 0.00000000e+00 0.00000000e+00 0.00000000e+00 # O-CT-OH-HO
 37 charmm 4.50000000e-01 2 180 0 # CA-CA-N-HN
 38 charmm 1.00000000e+00 2 180 0 # CA-CA-CT-OH
 39 charmm 1.00000000e+00 2 180 0 # CA-CA-CT-O
 40 charmm 3.62500000e+00 2 180 0 # CA-CA-CA-CT
 41 charmm 3.62500000e+00 2 180 0 # CT-CA-CA-HA
 42 charmm 1.10000000e+00 2 180 0 # CA-CA-CA-CT (improper)

Atoms

 1 1 1 0.000 -2.896 -20.510 3.455
 2 1 1 0.000 -2.909 -19.075 3.490
 3 1 1 0.000 -1.675 -18.366 3.774
 4 1 1 0.000 -1.676 -21.188 3.694
 5 1 1 0.000 -0.489 -20.509 3.840
 6 1 1 0.000 -0.466 -19.046 3.766
 7 1 2 0.000 -3.775 -21.100 3.248
 8 1 2 0.000 -3.826 -18.509 3.414
 9 1 2 0.000 -1.737 -17.240 3.859
 10 1 11 0.000 0.836 -18.393 3.844
 11 1 11 0.000 -1.738 19.882 3.719
 12 1 2 0.000 0.442 -21.055 3.932
 13 1 6 0.000 -2.370 19.508 4.431
 14 1 6 0.000 1.567 -18.973 4.204
 15 1 1 0.000 -4.749 -11.381 4.415
 16 1 1 0.000 -5.146 -10.664 3.251
 17 1 1 0.000 -4.326 -9.633 2.770
 18 1 1 0.000 -3.668 -10.952 5.157
 19 1 1 0.000 -2.982 -9.813 4.765
 20 1 1 0.000 -3.247 -9.210 3.537
 21 1 2 0.000 -5.347 -12.190 4.794
 22 1 2 0.000 -5.981 -10.967 2.697
 23 1 2 0.000 -4.602 -9.210 1.818
 24 1 11 0.000 -2.144 -8.594 2.989
 25 1 11 0.000 -3.252 -11.681 6.271
 26 1 2 0.000 -2.134 -9.583 5.397
 27 1 6 0.000 -3.773 -11.608 7.145
 28 1 6 0.000 -1.253 -8.875 3.362
 29 1 1 0.000 15.530 -5.381 4.800
 30 1 1 0.000 15.104 -5.834 3.524
 31 1 1 0.000 13.787 -6.293 3.297
 32 1 1 0.000 14.559 -5.352 5.796
 33 1 1 0.000 13.311 -5.875 5.578
 34 1 1 0.000 12.909 -6.360 4.374
 35 1 2 0.000 16.509 -4.930 4.895
 36 1 2 0.000 15.833 -5.736 2.703
 37 1 2 0.000 13.538 -6.695 2.341
 38 1 11 0.000 11.613 -6.921 4.313
 39 1 11 0.000 14.678 -4.825 7.097
 40 1 2 0.000 12.490 -5.753 6.291
 41 1 6 0.000 13.805 -5.078 7.619
 42 1 6 0.000 10.998 -6.529 4.900
 43 1 1 0.000 -20.622 -11.602 -11.304
 44 1 1 0.000 20.946 -10.606 -11.139
 45 1 1 0.000 20.130 -10.706 -10.034
 46 1 1 0.000 -20.509 -12.714 -10.458
 47 1 1 0.000 21.105 -12.822 -9.385
 48 1 1 0.000 20.187 -11.752 -9.105
 49 1 2 0.000 -19.936 -11.545 -12.114
 50 1 2 0.000 20.857 -9.741 -11.781
 51 1 2 0.000 19.500 -9.916 -9.824
 52 1 11 0.000 19.180 -11.910 -8.120
 53 1 11 0.000 -19.382 -13.601 -10.609
 54 1 2 0.000 21.050 -13.671 -8.778
 55 1 6 0.000 -18.598 -13.090 -10.994
 56 1 6 0.000 18.826 -12.829 -8.016
 57 1 1 0.000 -2.270 -5.674 -11.912
 58 1 1 0.000 -2.604 -5.352 -13.277
 59 1 1 0.000 -1.918 -4.399 -13.949
 60 1 1 0.000 -1.229 -4.951 -11.293
 61 1 1 0.000 -0.544 -3.996 -11.968
 62 1 1 0.000 -0.890 -3.731 -13.323
 63 1 2 0.000 -2.745 -6.429 -11.355
 64 1 2 0.000 -3.381 -5.919 -13.772
 65 1 2 0.000 -2.160 -4.144 -14.982
 66 1 11 0.000 -0.084 -2.690 -13.955
 67 1 11 0.000 -0.779 -5.407 -9.970
 68 1 2 0.000 0.322 -3.423 -11.523
 69 1 6 0.000 -0.136 -6.059 -10.005
 70 1 6 0.000 -0.020 -1.821 -13.353
 71 1 1 0.000 -16.749 7.303 -11.655
 72 1 1 0.000 -17.672 8.256 -12.145
 73 1 1 0.000 -18.909 8.433 -11.433
 74 1 1 0.000 -16.979 6.571 -10.501
 75 1 1 0.000 -18.250 6.715 -9.809
 76 1 1 0.000 -19.208 7.646 -10.307
 77 1 2 0.000 -15.954 7.027 -12.273
 78 1 2 0.000 -17.472 8.745 -13.136
 79 1 2 0.000 -19.585 9.177 -11.764
 80 1 11 0.000 -20.494 7.760 -9.657
 81 1 11 0.000 -15.935 5.754 -9.940
 82 1 2 0.000 -18.443 6.185 -8.961
 83 1 6 0.000 -15.858 4.761 -10.406
 84 1 6 0.000 -21.265 7.773 -10.403
 85 1 1 0.000 20.579 15.688 8.383
 86 1 1 0.000 -21.267 16.846 8.734
 87 1 1 0.000 -19.992 17.211 8.223
 88 1 1 0.000 -21.259 14.811 7.428
 89 1 1 0.000 -19.975 15.167 6.910
 90 1 1 0.000 -19.335 16.369 7.306
 91 1 2 0.000 19.582 15.557 8.810
 92 1 2 0.000 20.724 17.621 9.339
 93 1 2 0.000 -19.568 18.208 8.465
 94 1 11 0.000 -18.208 16.761 6.644
 95 1 11 0.000 20.708 13.515 7.170
 96 1 2 0.000 -19.560 14.499 6.158
 97 1 6 0.000 20.689 13.182 6.246
 98 1 6 0.000 -18.368 16.776 5.615
 99 1 1 0.000 10.601 -1.260 2.369
 100 1 1 0.000 11.003 -2.422 2.978
 101 1 1 0.000 12.371 -2.796 2.894
 102 1 1 0.000 11.516 -0.374 1.740
 103 1 1 0.000 12.873 -0.722 1.708
 104 1 1 0.000 13.302 -1.941 2.213
 105 1 2 0.000 9.517 -1.076 2.494
 106 1 2 0.000 10.398 -3.132 3.471
 107 1 2 0.000 12.731 -3.735 3.233
 108 1 11 0.000 14.632 -2.368 2.035
 109 1 11 0.000 11.019 0.799 1.143
 110 1 2 0.000 13.667 -0.102 1.252
 111 1 6 0.000 10.351 1.325 1.672
 112 1 6 0.000 14.865 -3.261 1.577
 113 1 1 0.000 8.067 -7.279 16.049
 114 1 1 0.000 7.440 -7.589 14.804
 115 1 1 0.000 8.059 -8.584 13.958
 116 1 1 0.000 9.239 -7.866 16.447
 117 1 1 0.000 9.859 -8.827 15.565
 118 1 1 0.000 9.278 -9.148 14.366
 119 1 2 0.000 7.615 -6.601 16.774
 120 1 2 0.000 6.464 -7.083 14.575
 121 1 2 0.000 7.596 -8.919 13.066
 122 1 11 0.000 9.893 -10.175 13.595
 123 1 4 0.000 9.786 -7.555 17.678
 124 1 2 0.000 10.823 -9.241 15.951
 125 1 6 0.000 10.794 -7.589 17.733
 126 1 6 0.000 10.576 -9.888 12.832
 127 1 1 0.000 -12.366 -11.050 -21.891
 128 1 1 0.000 -11.497 -9.997 -22.268
 129 1 1 0.000 -10.577 -9.463 -21.369
 130 1 1 0.000 -12.265 -11.520 -20.558
 131 1 1 0.000 -11.276 -11.049 -19.689
 132 1 1 0.000 -10.426 -10.066 -20.108
 133 1 2 0.000 -13.159 -11.411 -22.556
 134 1 2 0.000 -11.595 -9.646 -23.265
 135 1 2 0.000 -9.930 -8.663 -21.604
 136 1 4 0.000 -9.388 -9.630 -19.249
 137 1 4 0.000 -13.187 -12.506 -20.147
 138 1 2 0.000 -11.205 -11.417 -18.660
 139 1 6 0.000 -13.414 -13.189 -20.831
 140 1 6 0.000 -8.599 -9.254 -19.817
 141 1 1 0.000 17.660 5.189 19.368
 142 1 1 0.000 17.713 3.973 20.043
 143 1 1 0.000 16.666 3.663 20.985
 144 1 1 0.000 16.551 6.057 19.587
 145 1 1 0.000 15.475 5.661 20.352
 146 1 1 0.000 15.530 4.433 20.958
 147 1 2 0.000 18.475 5.588 18.779
 148 1 2 0.000 18.603 3.415 20.096
 149 1 2 0.000 16.750 2.814 21.671
 150 1 4 0.000 14.492 4.042 21.780
 151 1 4 0.000 16.613 7.346 18.967
 152 1 2 0.000 14.594 6.193 20.503
 153 1 6 0.000 15.933 7.598 18.267
 154 1 6 0.000 14.687 3.308 22.522
 155 1 1 0.000 15.107 20.166 -2.096
 156 1 1 0.000 16.100 19.185 -2.205
 157 1 1 0.000 17.308 19.334 -1.471
 158 1 1 0.000 15.316 -21.205 -1.324
 159 1 1 0.000 16.487 -21.061 -0.588
 160 1 1 0.000 17.419 20.416 -0.580
 161 1 2 0.000 14.243 19.978 -2.665
 162 1 2 0.000 15.998 18.250 -2.714
 163 1 2 0.000 17.931 18.442 -1.550
 164 1 11 0.000 18.485 20.545 0.325
 165 1 11 0.000 14.254 -20.249 -1.297
 166 1 2 0.000 16.600 -20.179 -0.006
 167 1 6 0.000 13.790 -20.067 -2.191
 168 1 6 0.000 18.346 21.244 1.017
 169 1 1 0.000 4.594 -14.538 -16.614
 170 1 1 0.000 4.691 -15.401 -17.743
 171 1 1 0.000 5.857 -16.126 -17.989
 172 1 1 0.000 5.600 -14.382 -15.706
 173 1 1 0.000 6.697 -15.223 -15.889
 174 1 1 0.000 6.893 -15.950 -17.087
 175 1 2 0.000 3.697 -14.009 -16.454
 176 1 2 0.000 3.973 -15.436 -18.521
 177 1 2 0.000 5.926 -16.739 -18.863
 178 1 11 0.000 8.195 -16.197 -17.458
 179 1 11 0.000 5.488 -13.448 -14.586
 180 1 2 0.000 7.503 -15.253 -15.202
 181 1 6 0.000 4.614 -13.423 -14.087
 182 1 6 0.000 8.821 -16.348 -16.682
 183 1 1 0.000 13.472 11.375 10.912
 184 1 1 0.000 13.450 11.931 12.182
 185 1 1 0.000 13.522 11.144 13.346
 186 1 1 0.000 13.509 9.947 10.780
 187 1 1 0.000 13.504 9.151 11.880
 188 1 1 0.000 13.561 9.736 13.216
 189 1 2 0.000 13.461 12.018 10.043
 190 1 2 0.000 13.357 12.990 12.280
 191 1 2 0.000 13.576 11.632 14.280
 192 1 11 0.000 13.622 8.891 14.373
 193 1 11 0.000 13.632 9.278 9.550
 194 1 2 0.000 13.845 8.123 11.778
 195 1 6 0.000 14.314 8.547 9.525
 196 1 6 0.000 12.884 8.193 14.364
 197 1 1 0.000 -3.760 -18.564 8.927
 198 1 1 0.000 -3.680 -18.099 10.232
 199 1 1 0.000 -3.797 -18.972 11.350
 200 1 1 0.000 -3.975 -19.944 8.656
 201 1 1 0.000 -3.984 -20.836 9.771
 202 1 1 0.000 -3.951 -20.362 11.109
 203 1 2 0.000 -3.381 -17.978 8.084
 204 1 2 0.000 -3.507 -17.055 10.497
 205 1 2 0.000 -3.733 -18.635 12.386
 206 1 11 0.000 -4.155 -21.184 12.272
 207 1 11 0.000 -4.216 -20.511 7.399
 208 1 2 0.000 -3.988 20.653 9.604
 209 1 6 0.000 -5.152 -20.728 7.063
 210 1 6 0.000 -3.623 -20.822 13.013
 211 1 1 0.000 2.636 4.304 -11.458
 212 1 1 0.000 3.145 4.808 -10.272
 213 1 1 0.000 3.609 3.942 -9.224
 214 1 1 0.000 2.705 2.875 -11.705
 215 1 1 0.000 3.346 2.111 -10.740
 216 1 1 0.000 3.747 2.566 -9.482
 217 1 2 0.000 2.153 4.957 -12.159
 218 1 2 0.000 3.288 5.867 -10.141
 219 1 2 0.000 3.911 4.442 -8.224
 220 1 11 0.000 4.448 1.707 -8.628
 221 1 11 0.000 2.135 2.372 -12.894
 222 1 2 0.000 3.507 1.071 -10.976
 223 1 6 0.000 1.213 2.731 -13.089
 224 1 6 0.000 4.956 0.902 -9.074
 225 1 1 0.000 -9.164 6.957 9.296
 226 1 1 0.000 -9.309 7.731 8.127
 227 1 1 0.000 -9.551 7.110 6.833
 228 1 1 0.000 -9.393 5.558 9.225
 229 1 1 0.000 -9.747 4.937 7.974
 230 1 1 0.000 -9.762 5.681 6.774
 231 1 2 0.000 -8.985 7.414 10.232
 232 1 2 0.000 -9.108 8.780 8.209
 233 1 2 0.000 -9.613 7.734 6.008
 234 1 11 0.000 -10.233 5.202 5.538
 235 1 11 0.000 -9.198 4.747 10.379
 236 1 2 0.000 -9.985 3.878 7.911
 237 1 6 0.000 -8.633 5.147 11.118
 238 1 6 0.000 -11.041 5.719 5.174
 239 1 1 0.000 -0.240 17.833 11.794
 240 1 1 0.000 -1.239 18.348 12.619
 241 1 1 0.000 -1.603 17.648 13.748
 242 1 1 0.000 0.408 16.583 12.047
 243 1 1 0.000 -0.037 15.857 13.184
 244 1 1 0.000 -0.907 16.471 14.082
 245 1 2 0.000 0.052 18.489 11.053
 246 1 2 0.000 -1.719 19.261 12.335
 247 1 2 0.000 -2.357 18.024 14.432
 248 1 11 0.000 -1.309 15.860 15.286
 249 1 11 0.000 1.487 16.175 11.222
 250 1 2 0.000 0.509 14.905 13.379
 251 1 6 0.000 2.150 16.924 10.966
 252 1 6 0.000 -1.304 16.523 16.027
 253 1 1 0.000 -14.244 19.111 -3.435
 254 1 1 0.000 -14.169 17.747 -3.745
 255 1 1 0.000 -15.182 16.913 -3.278
 256 1 1 0.000 -15.426 19.668 -2.940
 257 1 1 0.000 -16.423 18.814 -2.485
 258 1 1 0.000 -16.294 17.455 -2.566
 259 1 2 0.000 -13.338 19.669 -3.750
 260 1 2 0.000 -13.402 17.278 -4.375
 261 1 2 0.000 -15.080 15.840 -3.445
 262 1 11 0.000 -17.266 16.614 -2.124
 263 1 11 0.000 -15.734 21.043 -2.865
 264 1 2 0.000 -17.372 19.286 -2.291
 265 1 6 0.000 -16.759 21.157 -2.904
 266 1 6 0.000 -17.147 15.673 -2.453
 267 1 1 0.000 -6.078 -9.309 19.940
 268 1 1 0.000 -6.628 -8.383 20.910
 269 1 1 0.000 -7.493 -7.412 20.426
 270 1 1 0.000 -6.518 -9.333 18.611
 271 1 1 0.000 -7.506 -8.457 18.188
 272 1 1 0.000 -7.933 -7.402 19.086
 273 1 2 0.000 -5.389 -10.082 20.363
 274 1 2 0.000 -6.281 -8.356 21.973
 275 1 2 0.000 -7.855 -6.634 21.136
 276 1 4 0.000 -8.788 -6.330 18.652
 277 1 8 0.000 -6.138 -10.319 17.705
 278 1 2 0.000 -7.870 -8.534 17.163
 279 1 6 0.000 -5.271 -10.856 17.881
 280 1 6 0.000 -8.719 -5.430 19.172
 281 1 1 0.000 -14.012 -20.831 -13.454
 282 1 1 0.000 -13.587 20.540 -14.169
 283 1 1 0.000 -14.102 19.262 -13.812
 284 1 1 0.000 -14.945 -20.925 -12.344
 285 1 1 0.000 -15.609 20.359 -12.115
 286 1 1 0.000 -15.082 19.192 -12.783
 287 1 2 0.000 -13.494 -19.884 -13.631
 288 1 2 0.000 -12.824 20.674 -14.986
 289 1 2 0.000 -13.728 18.320 -14.124
 290 1 11 0.000 -15.411 17.868 -12.355
 291 1 11 0.000 -15.299 -19.733 -11.628
 292 1 2 0.000 -16.366 20.309 -11.319
 293 1 6 0.000 -14.478 -19.161 -11.590
 294 1 6 0.000 -16.343 17.587 -12.490
 295 1 1 0.000 -0.293 -8.605 13.589
 296 1 1 0.000 -0.785 -8.190 12.403
 297 1 1 0.000 -1.008 -6.839 12.114
 298 1 1 0.000 0.203 -7.630 14.492
 299 1 1 0.000 0.052 -6.270 14.266
 300 1 1 0.000 -0.552 -5.842 13.022
 301 1 2 0.000 -0.182 -9.665 13.759
 302 1 2 0.000 -1.215 -8.815 11.673
 303 1 2 0.000 -1.661 -6.560 11.285
 304 1 11 0.000 -0.878 -4.489 12.843
 305 1 11 0.000 0.731 -8.036 15.703
 306 1 2 0.000 0.536 -5.493 14.874
 307 1 6 0.000 1.727 -7.988 15.865
 308 1 6 0.000 -1.466 -4.100 13.568
 309 1 1 0.000 9.901 18.831 -2.767
 310 1 1 0.000 10.311 18.739 -1.386
 311 1 1 0.000 9.801 17.794 -0.533
 312 1 1 0.000 8.995 17.883 -3.224
 313 1 1 0.000 8.315 17.052 -2.310
 314 1 1 0.000 8.738 17.010 -0.964
 315 1 2 0.000 10.318 19.506 -3.526
 316 1 2 0.000 11.102 19.407 -1.080
 317 1 2 0.000 10.079 17.769 0.531
 318 1 11 0.000 8.083 16.115 -0.039
 319 1 11 0.000 8.532 17.838 -4.595
 320 1 2 0.000 7.406 16.484 -2.703
 321 1 6 0.000 8.062 18.613 -5.002
 322 1 6 0.000 8.170 16.409 0.919
 323 1 1 0.000 20.915 -9.626 2.840
 324 1 1 0.000 -20.596 -9.248 1.858
 325 1 1 0.000 -19.267 -9.171 2.286
 326 1 1 0.000 -21.295 -10.137 4.079
 327 1 1 0.000 -19.953 -10.157 4.438
 328 1 1 0.000 -18.948 -9.603 3.564
 329 1 2 0.000 19.888 -9.598 2.474
 330 1 2 0.000 -20.897 -8.879 0.893
 331 1 2 0.000 -18.524 -8.765 1.663
 332 1 11 0.000 -17.585 -9.593 3.944
 333 1 11 0.000 20.192 -10.438 4.983
 334 1 2 0.000 -19.776 -10.489 5.433
 335 1 6 0.000 20.478 -10.387 5.910
 336 1 6 0.000 -17.177 -10.536 3.761
 337 1 1 0.000 14.519 -3.159 15.324
 338 1 1 0.000 13.566 -2.791 16.297
 339 1 1 0.000 13.904 -2.790 17.691
 340 1 1 0.000 15.798 -3.506 15.711
 341 1 1 0.000 16.137 -3.467 17.096
 342 1 1 0.000 15.188 -3.086 18.027
 343 1 2 0.000 14.216 -3.189 14.274
 344 1 2 0.000 12.618 -2.505 16.021
 345 1 2 0.000 13.187 -2.427 18.431
 346 1 4 0.000 15.490 -2.829 19.369
 347 1 11 0.000 16.764 -3.945 14.797
 348 1 2 0.000 17.149 -3.762 17.464
 349 1 6 0.000 17.694 -3.576 14.819
 350 1 6 0.000 15.061 -2.009 19.733
 351 1 1 0.000 12.700 0.714 19.702
 352 1 1 0.000 11.532 0.417 20.331
 353 1 1 0.000 10.399 0.035 19.615
 354 1 1 0.000 12.799 0.662 18.292
 355 1 1 0.000 11.616 0.442 17.569
 356 1 1 0.000 10.416 0.199 18.268
 357 1 2 0.000 13.569 0.912 20.334
 358 1 2 0.000 11.617 0.484 21.458
 359 1 2 0.000 9.470 -0.125 20.175
 360 1 4 0.000 9.188 0.072 17.566
 361 1 11 0.000 14.084 0.960 17.650
 362 1 2 0.000 11.604 0.474 16.490
 363 1 6 0.000 14.008 1.267 16.678
 364 1 6 0.000 9.106 -0.546 16.823
 365 1 1 0.000 -0.227 17.862 17.584
 366 1 1 0.000 0.042 16.772 18.390
 367 1 1 0.000 -0.602 16.707 19.648
 368 1 1 0.000 -1.177 18.894 17.962
 369 1 1 0.000 -1.600 18.988 19.276
 370 1 1 0.000 -1.255 17.898 20.162
 371 1 2 0.000 0.129 17.968 16.543
 372 1 2 0.000 0.665 15.988 18.121
 373 1 2 0.000 -0.366 15.862 20.291
 374 1 4 0.000 -1.705 18.008 21.481
 375 1 11 0.000 -1.934 19.679 16.968
 376 1 2 0.000 -2.178 19.835 19.635
 377 1 6 0.000 -2.793 19.256 16.733
 378 1 6 0.000 -2.509 18.619 21.698
 379 1 1 0.000 -1.224 -0.309 1.174
 380 1 1 0.000 -1.715 0.844 0.581
 381 1 1 0.000 -1.886 0.930 -0.826
 382 1 1 0.000 -0.801 -1.416 0.370
 383 1 1 0.000 -0.898 -1.264 -1.021
 384 1 1 0.000 -1.371 -0.101 -1.645
 385 1 2 0.000 -1.052 -0.264 2.263
 386 1 2 0.000 -1.920 1.744 1.156
 387 1 2 0.000 -2.276 1.853 -1.262
 388 1 11 0.000 -1.545 -0.132 -3.082
 389 1 11 0.000 -0.601 -2.697 0.896
 390 1 2 0.000 -0.730 -2.148 -1.687
 391 1 6 0.000 -1.223 -2.944 1.647
 392 1 6 0.000 -1.620 -1.102 -3.519
 393 1 1 0.000 -9.088 0.727 19.387
 394 1 1 0.000 -8.529 1.868 19.959
 395 1 1 0.000 -7.134 2.083 19.918
 396 1 1 0.000 -8.336 -0.138 18.624
 397 1 1 0.000 -6.978 0.194 18.351
 398 1 1 0.000 -6.356 1.294 19.000
 399 1 2 0.000 -10.143 0.538 19.373
 400 1 2 0.000 -9.085 2.624 20.504
 401 1 2 0.000 -6.626 2.982 20.433
 402 1 4 0.000 -5.016 1.582 18.815
 403 1 11 0.000 -8.919 -1.301 18.112
 404 1 2 0.000 -6.354 -0.503 17.719
 405 1 6 0.000 -8.252 -2.061 18.138
 406 1 6 0.000 -4.744 2.524 19.022
 407 1 1 0.000 3.681 15.193 15.288
 408 1 1 0.000 3.477 15.937 16.477
 409 1 1 0.000 3.640 15.263 17.784
 410 1 1 0.000 3.916 13.811 15.418
 411 1 1 0.000 4.121 13.161 16.659
 412 1 1 0.000 3.914 13.846 17.812
 413 1 2 0.000 3.578 15.640 14.269
 414 1 2 0.000 3.111 16.979 16.468
 415 1 2 0.000 3.655 15.814 18.687
 416 1 4 0.000 4.322 13.302 19.105
 417 1 11 0.000 4.175 12.944 14.293
 418 1 2 0.000 4.394 12.145 16.618
 419 1 6 0.000 3.680 12.102 14.480
 420 1 6 0.000 5.154 12.706 19.053
 421 1 1 0.000 17.433 5.880 -0.576
 422 1 1 0.000 18.818 5.890 -0.636
 423 1 1 0.000 19.598 4.938 -1.349
 424 1 1 0.000 16.766 4.877 -1.349
 425 1 1 0.000 17.546 3.921 -2.082
 426 1 1 0.000 18.905 3.939 -2.029
 427 1 2 0.000 16.928 6.579 0.013
 428 1 2 0.000 19.355 6.685 -0.088
 429 1 2 0.000 20.677 4.990 -1.366
 430 1 11 0.000 19.654 2.920 -2.617
 431 1 11 0.000 15.378 4.818 -1.380
 432 1 2 0.000 17.069 3.141 -2.655
 433 1 6 0.000 15.002 4.648 -0.439
 434 1 6 0.000 19.390 2.017 -2.421
 435 1 1 0.000 -19.417 16.920 -4.941
 436 1 1 0.000 -18.190 16.319 -5.099
 437 1 1 0.000 -18.165 14.908 -5.217
 438 1 1 0.000 -20.619 16.161 -5.091
 439 1 1 0.000 -20.592 14.786 -5.189
 440 1 1 0.000 -19.353 14.133 -5.330
 441 1 2 0.000 -19.487 17.991 -4.731
 442 1 2 0.000 -17.276 16.831 -5.138
 443 1 2 0.000 -17.259 14.338 -5.418
 444 1 11 0.000 -19.509 12.789 -5.694
 445 1 11 0.000 20.650 16.907 -5.205
 446 1 2 0.000 20.961 14.288 -5.279
 447 1 6 0.000 20.717 17.791 -5.673
 448 1 6 0.000 -20.498 12.536 -5.863
 449 1 1 0.000 0.681 -4.653 20.034
 450 1 1 0.000 1.451 -5.809 19.835
 451 1 1 0.000 2.843 -5.677 19.596
 452 1 1 0.000 1.289 -3.349 19.990
 453 1 1 0.000 2.689 -3.219 19.738
 454 1 1 0.000 3.411 -4.379 19.502
 455 1 2 0.000 -0.382 -4.788 20.154
 456 1 2 0.000 0.943 -6.783 19.910
 457 1 2 0.000 3.456 -6.533 19.450
 458 1 11 0.000 4.829 -4.213 19.360
 459 1 4 0.000 0.572 -2.142 20.293
 460 1 2 0.000 3.173 -2.256 19.789
 461 1 6 0.000 0.820 -1.335 19.761
 462 1 6 0.000 5.304 -3.685 20.084
 463 1 1 0.000 17.371 -17.532 15.183
 464 1 1 0.000 16.062 -17.101 14.972
 465 1 1 0.000 14.966 -17.841 15.425
 466 1 1 0.000 17.585 -18.803 15.745
 467 1 1 0.000 16.523 -19.623 16.050
 468 1 1 0.000 15.228 -19.101 15.955
 469 1 2 0.000 18.246 -16.926 14.925
 470 1 2 0.000 15.914 -16.160 14.573
 471 1 2 0.000 13.934 -17.476 15.323
 472 1 11 0.000 14.082 -19.760 16.408
 473 1 11 0.000 18.932 -19.198 16.022
 474 1 2 0.000 16.713 -20.607 16.438
 475 1 6 0.000 19.554 -18.662 15.484
 476 1 6 0.000 13.552 -20.309 15.741
 477 1 1 0.000 19.149 -6.892 19.727
 478 1 1 0.000 18.257 -7.015 18.703
 479 1 1 0.000 17.648 -8.267 18.556
 480 1 1 0.000 19.256 -7.849 20.745
 481 1 1 0.000 18.703 -9.089 20.558
 482 1 1 0.000 17.830 -9.277 19.463
 483 1 2 0.000 19.604 -5.930 19.805
 484 1 2 0.000 18.030 -6.245 17.940
 485 1 2 0.000 16.880 -8.440 17.717
 486 1 11 0.000 17.120 -10.517 19.418
 487 1 4 0.000 19.724 -7.653 22.086
 488 1 2 0.000 18.707 -9.866 21.334
 489 1 6 0.000 19.282 -8.155 22.890
 490 1 6 0.000 17.741 -11.339 19.466
 491 1 1 0.000 -16.013 -1.170 2.207
 492 1 1 0.000 -16.833 -0.126 2.648
 493 1 1 0.000 -16.374 1.078 3.156
 494 1 1 0.000 -14.635 -1.039 2.574
 495 1 1 0.000 -14.151 0.170 3.284
 496 1 1 0.000 -14.986 1.286 3.421
 497 1 2 0.000 -16.395 -2.043 1.622
 498 1 2 0.000 -17.910 -0.180 2.495
 499 1 2 0.000 -17.082 1.803 3.615
 500 1 11 0.000 -14.664 2.426 4.180
 501 1 11 0.000 -13.838 -2.178 2.129
 502 1 2 0.000 -13.094 0.220 3.586
 503 1 6 0.000 -13.182 -1.950 1.368
 504 1 6 0.000 -13.936 2.401 4.870
 505 1 1 0.000 -10.432 -13.286 -15.131
 506 1 1 0.000 -10.842 -13.370 -13.794
 507 1 1 0.000 -10.081 -12.880 -12.728
 508 1 1 0.000 -9.256 -12.622 -15.420
 509 1 1 0.000 -8.539 -12.018 -14.316
 510 1 1 0.000 -8.957 -12.136 -13.009
 511 1 2 0.000 -11.071 -13.789 -15.952
 512 1 2 0.000 -11.780 -13.879 -13.547
 513 1 2 0.000 -10.375 -12.976 -11.697
 514 1 11 0.000 -8.321 -11.380 -12.004
 515 1 4 0.000 -8.751 -12.672 -16.753
 516 1 2 0.000 -7.647 -11.433 -14.499
 517 1 6 0.000 -9.499 -12.493 -17.415
 518 1 6 0.000 -8.155 -10.399 -12.193
 519 1 1 0.000 12.468 5.726 16.939
 520 1 1 0.000 13.023 4.474 16.726
 521 1 1 0.000 13.033 3.956 15.387
 522 1 1 0.000 11.798 6.401 15.919
 523 1 1 0.000 11.981 5.972 14.593
 524 1 1 0.000 12.512 4.736 14.347
 525 1 2 0.000 12.440 6.051 17.972
 526 1 2 0.000 13.338 3.879 17.581
 527 1 2 0.000 13.564 2.960 15.258
 528 1 11 0.000 12.441 4.190 13.043
 529 1 11 0.000 10.995 7.473 16.197
 530 1 2 0.000 11.638 6.574 13.784
 531 1 6 0.000 11.441 8.347 16.333
 532 1 6 0.000 11.631 3.640 12.854
 533 1 1 0.000 -3.238 -4.267 -3.927
 534 1 1 0.000 -3.105 -5.172 -5.017
 535 1 1 0.000 -2.329 -6.345 -4.897
 536 1 1 0.000 -2.773 -4.616 -2.712
 537 1 1 0.000 -1.842 -5.698 -2.611
 538 1 1 0.000 -1.828 -6.692 -3.644
 539 1 2 0.000 -3.936 -3.511 -4.061
 540 1 2 0.000 -3.670 -4.888 -5.926
 541 1 2 0.000 -2.178 -7.052 -5.711
 542 1 11 0.000 -1.298 -7.949 -3.342
 543 1 11 0.000 -3.155 -3.952 -1.477
 544 1 2 0.000 -1.492 -5.943 -1.626
 545 1 6 0.000 -2.399 -3.635 -0.860
 546 1 6 0.000 -1.501 -8.636 -4.038
 547 1 1 0.000 -10.302 4.206 16.109
 548 1 1 0.000 -10.477 3.326 17.136
 549 1 1 0.000 -11.638 2.554 17.173
 550 1 1 0.000 -11.201 4.269 15.068
 551 1 1 0.000 -12.340 3.393 15.016
 552 1 1 0.000 -12.568 2.564 16.129
 553 1 2 0.000 -9.486 4.879 16.188
 554 1 2 0.000 -9.808 3.421 18.044
 555 1 2 0.000 -11.811 1.940 18.044
 556 1 11 0.000 -13.678 1.645 16.144
 557 1 11 0.000 -10.868 5.010 13.917
 558 1 2 0.000 -13.066 3.460 14.202
 559 1 6 0.000 -9.936 4.899 13.483
 560 1 6 0.000 -14.141 1.647 15.223
 561 1 1 0.000 11.000 17.282 7.591
 562 1 1 0.000 10.968 16.046 8.296
 563 1 1 0.000 9.872 15.637 8.945
 564 1 1 0.000 9.870 18.079 7.566
 565 1 1 0.000 8.652 17.582 8.076
 566 1 1 0.000 8.687 16.309 8.782
 567 1 2 0.000 11.858 17.586 6.990
 568 1 2 0.000 11.851 15.352 8.177
 569 1 2 0.000 9.890 14.627 9.265
 570 1 11 0.000 7.466 15.632 8.904
 571 1 11 0.000 9.802 19.230 6.853
 572 1 2 0.000 7.741 18.064 7.891
 573 1 6 0.000 10.599 19.392 6.268
 574 1 6 0.000 7.504 14.623 8.800
 575 1 1 0.000 2.940 -5.447 12.235
 576 1 1 0.000 3.546 -6.408 13.126
 577 1 1 0.000 4.551 -7.320 12.719
 578 1 1 0.000 3.545 -5.375 10.964
 579 1 1 0.000 4.606 -6.270 10.568
 580 1 1 0.000 5.039 -7.302 11.412
 581 1 2 0.000 2.205 -4.749 12.479
 582 1 2 0.000 3.053 -6.317 14.122
 583 1 2 0.000 4.905 -8.122 13.306
 584 1 11 0.000 5.809 -8.390 10.925
 585 1 11 0.000 3.192 -4.305 10.089
 586 1 2 0.000 5.079 -6.099 9.621
 587 1 6 0.000 2.202 -4.047 10.123
 588 1 6 0.000 6.708 -8.422 11.370
 589 1 1 0.000 -9.829 18.683 -16.946
 590 1 1 0.000 -9.694 20.010 -16.427
 591 1 1 0.000 -8.763 20.199 -15.383
 592 1 1 0.000 -8.993 17.642 -16.563
 593 1 1 0.000 -8.081 17.820 -15.552
 594 1 1 0.000 -7.928 19.162 -14.996
 595 1 2 0.000 -10.614 18.429 -17.620
 596 1 2 0.000 -10.289 20.798 -16.760
 597 1 2 0.000 -8.641 21.213 -15.016
 598 1 11 0.000 -7.000 19.321 -13.903
 599 1 11 0.000 -8.969 16.440 -17.328
 600 1 2 0.000 -7.486 17.001 -15.173
 601 1 6 0.000 -8.598 16.525 -18.279
 602 1 6 0.000 -7.396 19.852 -13.174
 603 1 1 0.000 12.014 11.109 -5.214
 604 1 1 0.000 10.641 11.080 -5.455
 605 1 1 0.000 10.167 11.210 -6.804
 606 1 1 0.000 12.873 11.108 -6.302
 607 1 1 0.000 12.430 11.384 -7.613
 608 1 1 0.000 11.064 11.459 -7.838
 609 1 2 0.000 12.399 10.980 -4.198
 610 1 2 0.000 9.988 10.796 -4.686
 611 1 2 0.000 9.106 11.293 -6.989
 612 1 11 0.000 10.558 11.674 -9.155
 613 1 11 0.000 14.214 10.715 -6.121
 614 1 2 0.000 13.069 11.464 -8.507
 615 1 6 0.000 14.919 11.222 -6.664
 616 1 6 0.000 9.775 11.079 -9.443
 617 1 1 0.000 -8.416 -9.996 10.813
 618 1 1 0.000 -7.977 -9.378 11.952
 619 1 1 0.000 -7.957 -7.980 12.027
 620 1 1 0.000 -8.674 -9.279 9.645
 621 1 1 0.000 -8.287 -7.900 9.559
 622 1 1 0.000 -8.034 -7.212 10.809
 623 1 2 0.000 -8.529 -11.118 10.805
 624 1 2 0.000 -7.701 -10.012 12.854
 625 1 2 0.000 -7.730 -7.508 12.942
 626 1 11 0.000 -8.101 -5.850 10.920
 627 1 11 0.000 -8.823 -9.965 8.440
 628 1 2 0.000 -8.247 -7.444 8.553
 629 1 6 0.000 -8.298 -9.657 7.655
 630 1 6 0.000 -8.914 -5.347 10.618
 631 1 1 0.000 -7.026 6.399 -12.344
 632 1 1 0.000 -6.848 7.438 -13.249
 633 1 1 0.000 -5.662 8.224 -13.132
 634 1 1 0.000 -6.134 6.167 -11.245
 635 1 1 0.000 -5.044 7.024 -11.096
 636 1 1 0.000 -4.791 8.023 -12.040
 637 1 2 0.000 -7.800 5.682 -12.619
 638 1 2 0.000 -7.424 7.452 -14.214
 639 1 2 0.000 -5.358 9.008 -13.814
 640 1 11 0.000 -3.533 8.734 -12.039
 641 1 11 0.000 -6.201 4.944 -10.449
 642 1 2 0.000 -4.351 6.875 -10.294
 643 1 6 0.000 -5.345 4.580 -10.093
 644 1 6 0.000 -2.987 8.670 -12.920
 645 1 1 0.000 2.014 21.217 -17.106
 646 1 1 0.000 2.719 20.524 -16.106
 647 1 1 0.000 2.419 20.637 -14.752
 648 1 1 0.000 0.900 -20.562 -16.725
 649 1 1 0.000 0.535 -20.481 -15.392
 650 1 1 0.000 1.284 -21.070 -14.344
 651 1 2 0.000 2.554 -21.190 -18.072
 652 1 2 0.000 3.719 20.124 -16.377
 653 1 2 0.000 3.097 20.259 -13.983
 654 1 11 0.000 0.908 -20.972 -13.008
 655 1 11 0.000 0.154 -19.765 -17.677
 656 1 2 0.000 -0.321 -19.903 -15.182
 657 1 6 0.000 -0.042 -18.872 -17.152
 658 1 6 0.000 1.562 21.104 -12.403
 659 1 1 0.000 -18.356 -6.191 13.644
 660 1 1 0.000 -18.059 -6.662 14.927
 661 1 1 0.000 -16.891 -6.375 15.630
 662 1 1 0.000 -17.454 -5.226 13.107
 663 1 1 0.000 -16.223 -4.975 13.746
 664 1 1 0.000 -15.911 -5.500 15.019
 665 1 2 0.000 -19.332 -6.489 13.112
 666 1 2 0.000 -18.701 -7.395 15.328
 667 1 2 0.000 -16.754 -6.772 16.609