Random packing of 'slab.lmps', 100 x 'H.lmps', 100 x 'OH.lmps'

9940 atoms
9168 bonds
12130 angles
19475 dihedrals
0 impropers

16 atom types
19 bond types
24 angle types
42 dihedral types

11.246593 53.753407 xlo xhi
11.246593 53.753407 ylo yhi
-18.753407 83.753407 zlo zhi

Masses

 1 12.0100000 # CA (carbon aromatic)
 2 1.0080000 # HA (hydrogen aromatic)
 3 12.0100000 # C (carbon in carboxyl)
 4 16.0000000 # O (oxygen)
 5 14.0100000 # N (nitrogen with 1 hydrogen)
 6 1.0080000 # HN (hydrogen on nitrogen)
 7 16.0000000 # OH (protonated carboxyl oxygen)
 8 14.0100000 # NH (nitrogen with 2 hydrogens)
 9 1.0080000 # HO (hydrogen on oxygen)
 10 12.0100000 # LC (crosslinked carbon)
 11 14.0100000 # LN (crosslinked nitrogen)
 12 12.0100000 # CT (terminated carbon on carboxyl group)
 13 1.0080000 # H (free hydrogen for termination)
 14 16.0000000 # OR (reactive oxygen in free hydroxyl)
 15 15.9994000 # OW (oxygen in water)
 16  1.0080000 # HW (hydrogen in water)

Pair Coeffs

 1 0.0860000 3.3996695 # CA
 2 0.0150000 2.5996425 # HA
 3 0.0860000 3.3996695 # C
 4 0.2100000 2.9599219 # O
 5 0.1700000 3.2499985 # N
 6 0.0157000 1.0690785 # HN
 7 0.2104000 3.0664734 # OH
 8 0.1700000 3.2499985 # NH
 9 0.0000000 0.0000000 # HO
 10 0.0860000 3.3996695 # LC
 11 0.1700000 3.2499985 # LN
 12 0.0860000 3.3996695 # CT
 13 0.0157000 1.0690785 # H
 14 0.2104000 3.0664734 # OR
 15 0.1020000 3.1880000 # OW
 16 0.0000000 0.0000000 # HW

Bond Coeffs

 1 harmonic 4.61100000e+02 1.39840000e+00 # CA-CA
 2 harmonic 3.45900000e+02 1.49060000e+00 # CA-C
 3 harmonic 3.45800000e+02 1.08600000e+00 # CA-HA
 4 harmonic 6.37700000e+02 1.21830000e+00 # C-O
 5 harmonic 4.27600000e+02 1.37890000e+00 # LC-LN
 6 harmonic 3.84200000e+02 1.41210000e+00 # N-CA
 7 harmonic 4.03200000e+02 1.01290000e+00 # N-HN
 8 harmonic 4.17900000e+02 1.38590000e+00 # CA-NH
 9 harmonic 4.04600000e+02 1.01210000e+00 # NH-HN
 10 harmonic 3.45900000e+02 1.49060000e+00 # CA-LC
 11 harmonic 6.37700000e+02 1.21830000e+00 # LC-O
 12 harmonic 3.84200000e+02 1.41210000e+00 # LN-CA
 13 harmonic 4.03200000e+02 1.01290000e+00 # LN-HN
 14 harmonic 4.00100000e+02 1.35130000e+00 # CT-OH
 15 harmonic 3.71400000e+02 9.73000000e-01 # OH-HO
 16 harmonic 3.45900000e+02 1.49060000e+00 # CA-CT
 17 harmonic 6.37700000e+02 1.21830000e+00 # CT-O
 18 harmonic 3.71400000e+02 9.73000000e-01 # OR-HO
 19 harmonic 4.50000000e+02 9.57200000e-01 # OW-HW


Angle Coeffs

 1 harmonic 6.66000000e+01 1.20020052e+02 # CA-CA-CA
 2 harmonic 4.82000000e+01 1.19880051e+02 # CA-CA-HA
 3 harmonic 6.87000000e+01 1.22600053e+02 # CA-C-O
 4 harmonic 6.43000000e+01 1.20330052e+02 # CA-CA-C
 5 harmonic 6.77000000e+01 1.15250050e+02 # CA-LC-LN (TMC-side)
 6 harmonic 6.38000000e+01 1.23710053e+02 # LC-LN-CA (MPD-side)
 7 harmonic 4.83000000e+01 1.17550051e+02 # LC-LN-HN
 8 harmonic 7.42000000e+01 1.23050053e+02 # O-LC-LN
 9 harmonic 6.79000000e+01 1.20190052e+02 # N-CA-CA
 10 harmonic 4.76000000e+01 1.16000050e+02 # CA-N-HN
 11 harmonic 6.83000000e+01 1.20950052e+02 # CA-CA-NH
 12 harmonic 4.84000000e+01 1.16070050e+02 # CA-NH-HN
 13 harmonic 7.79000000e+01 1.30250056e+02 # O-C-O (does not exist in protonated monomers)
 14 harmonic 4.01000000e+01 1.15120050e+02 # HN-NH-HN
 15 harmonic 6.87000000e+01 1.22600053e+02 # CA-LC-O
 16 harmonic 6.43000000e+01 1.20330052e+02 # CA-CA-LC
 17 harmonic 6.79000000e+01 1.20190052e+02 # LN-CA-CA
 18 harmonic 4.76000000e+01 1.16000050e+02 # CA-LN-HN
 19 harmonic 6.92000000e+01 1.13450049e+02 # CA-CT-OH
 20 harmonic 4.99000000e+01 1.06550046e+02 # CT-OH-HO
 21 harmonic 7.59000000e+01 1.22100052e+02 # O-CT-OH
 22 harmonic 6.87000000e+01 1.22600053e+02 # CA-CT-O
 23 harmonic 6.43000000e+01 1.20330052e+02 # CA-CA-CT
 24 harmonic 5.50000000e+01 1.04520000e+02 # HW-OW-HW

Dihedral Coeffs

 1 charmm 3.62500000e+00 2 180 0 # CA-CA-CA-CA
 2 charmm 1.10000000e+00 2 180 0 # CA-CA-CA-HA (improper)
 3 charmm 1.00000000e+00 2 180 0 # CA-CA-C-O
 4 charmm 2.50000000e+00 2 180 0 # CA-LC-LN-CA
 5 charmm 1.05000000e+01 2 180 0 # CA-LC-LN-O
 6 charmm 4.50000000e-01 2 180 0 # LC-LN-CA-CA
 7 multi/harmonic 2.00000000e+00 2.00000000e+00 0.00000000e+00 0.00000000e+00 0.00000000e+00 # O-LC-LN-HN
 8 charmm 1.05000000e+00 2 180 0 # CA-CA-NH-HN
 9 charmm 3.62500000e+00 2 180 0 # CA-CA-CA-C
 10 charmm 3.62500000e+00 2 180 0 # CA-CA-CA-LC
 11 charmm 3.62500000e+00 2 180 0 # CA-CA-CA-HA
 12 charmm 3.62500000e+00 2 180 0 # C-CA-CA-HA
 13 charmm 3.62500000e+00 2 180 0 # LC-CA-CA-HA
 14 charmm 3.62500000e+00 2 180 0 # N-CA-CA-CA
 15 charmm 3.62500000e+00 2 180 0 # LN-CA-CA-CA
 16 charmm 3.62500000e+00 2 180 0 # N-CA-CA-HA
 17 charmm 3.62500000e+00 2 180 0 # LN-CA-CA-HA
 18 charmm 3.62500000e+00 2 180 0 # CA-CA-CA-NH
 19 charmm 3.62500000e+00 2 180 0 # HA-CA-CA-HA
 20 charmm 3.62500000e+00 2 180 0 # HA-CA-CA-NH
 21 charmm 1.10000000e+00 2 180 0 # CA-O-OH-CT (improper) (changed from CA-O-O-C in unprotonated)
 22 charmm 1.10000000e+00 2 180 0 # CA-CA-CA-C (improper)
 23 charmm 1.10000000e+00 2 180 0 # CA-CA-CA-LC (improper)
 24 charmm 1.10000000e+00 2 180 0 # LC-CA-LN-HN (improper)
 25 charmm 1.10000000e+00 2 180 0 # CA-CA-CA-N (improper)
 26 charmm 1.10000000e+00 2 180 0 # CA-CA-CA-LN (improper)
 27 charmm 1.10000000e+00 2 180 0 # CA-CA-CA-NH (improper)
 28 charmm 1.10000000e+00 2 180 0 # CA-HN-NH-HN (improper)
 29 charmm 1.00000000e+00 2 180 0 # CA-CA-LC-O
 30 charmm 1.00000000e+00 2 180 0 # CA-CA-LC-LN
 31 charmm 2.50000000e+00 2 180 0 # CA-LC-LN-HN
 32 charmm 2.50000000e+00 2 180 0 # O-LC-LN-CA
 33 charmm 2.50000000e+00 2 180 0 # O-LC-LN-HN
 34 charmm 4.50000000e-01 2 180 0 # HN-LN-CA-CA
 35 charmm 2.30000000e+00 2 180 0 # CA-CT-OH-HO
 36 multi/harmonic 1.90000000e+00 1.90000000e+00 0.00000000e+00 0.00000000e+00 0.00000000e+00 # O-CT-OH-HO
 37 charmm 4.50000000e-01 2 180 0 # CA-CA-N-HN
 38 charmm 1.00000000e+00 2 180 0 # CA-CA-CT-OH
 39 charmm 1.00000000e+00 2 180 0 # CA-CA-CT-O
 40 charmm 3.62500000e+00 2 180 0 # CA-CA-CA-CT
 41 charmm 3.62500000e+00 2 180 0 # CT-CA-CA-HA
 42 charmm 1.10000000e+00 2 180 0 # CA-CA-CA-CT (improper)

Atoms

 1 1 1 0.000 29.660 11.958 35.861
 2 1 1 0.000 29.647 13.393 35.896
 3 1 1 0.000 30.881 14.102 36.180
 4 1 1 0.000 30.880 11.280 36.100
 5 1 1 0.000 32.067 11.959 36.246
 6 1 1 0.000 32.090 13.422 36.172
 7 1 2 0.000 28.781 11.368 35.654
 8 1 2 0.000 28.730 13.959 35.820
 9 1 2 0.000 30.819 15.228 36.265
 10 1 11 0.000 33.392 14.075 36.250
 11 1 11 0.000 30.818 52.350 36.125
 12 1 2 0.000 32.998 11.413 36.338
 13 1 6 0.000 30.186 51.976 36.837
 14 1 6 0.000 34.123 13.495 36.610
 15 1 1 0.000 27.807 21.087 36.821
 16 1 1 0.000 27.410 21.804 35.657
 17 1 1 0.000 28.230 22.835 35.176
 18 1 1 0.000 28.888 21.516 37.563
 19 1 1 0.000 29.574 22.655 37.171
 20 1 1 0.000 29.309 23.258 35.943
 21 1 2 0.000 27.209 20.278 37.200
 22 1 2 0.000 26.575 21.501 35.103
 23 1 2 0.000 27.954 23.258 34.224
 24 1 11 0.000 30.412 23.874 35.395
 25 1 11 0.000 29.304 20.787 38.677
 26 1 2 0.000 30.422 22.885 37.803
 27 1 6 0.000 28.783 20.860 39.551
 28 1 6 0.000 31.303 23.593 35.768
 29 1 1 0.000 48.086 27.087 37.206
 30 1 1 0.000 47.660 26.634 35.930
 31 1 1 0.000 46.343 26.175 35.703
 32 1 1 0.000 47.115 27.116 38.202
 33 1 1 0.000 45.867 26.593 37.984
 34 1 1 0.000 45.465 26.108 36.780
 35 1 2 0.000 49.065 27.538 37.301
 36 1 2 0.000 48.389 26.732 35.109
 37 1 2 0.000 46.094 25.773 34.747
 38 1 11 0.000 44.169 25.547 36.719
 39 1 11 0.000 47.234 27.643 39.503
 40 1 2 0.000 45.046 26.715 38.697
 41 1 6 0.000 46.361 27.390 40.025
 42 1 6 0.000 43.554 25.939 37.306
 43 1 1 0.000 11.934 20.866 21.102
 44 1 1 0.000 53.502 21.862 21.267
 45 1 1 0.000 52.686 21.762 22.372
 46 1 1 0.000 12.047 19.754 21.948
 47 1 1 0.000 53.661 19.646 23.021
 48 1 1 0.000 52.743 20.716 23.301
 49 1 2 0.000 12.620 20.923 20.292
 50 1 2 0.000 53.413 22.727 20.625
 51 1 2 0.000 52.056 22.552 22.582
 52 1 11 0.000 51.736 20.558 24.286
 53 1 11 0.000 13.174 18.867 21.797
 54 1 2 0.000 53.606 18.797 23.628
 55 1 6 0.000 13.958 19.378 21.412
 56 1 6 0.000 51.382 19.639 24.390
 57 1 1 0.000 30.286 26.794 20.494
 58 1 1 0.000 29.952 27.116 19.129
 59 1 1 0.000 30.638 28.069 18.457
 60 1 1 0.000 31.327 27.517 21.113
 61 1 1 0.000 32.012 28.472 20.438
 62 1 1 0.000 31.666 28.737 19.083
 63 1 2 0.000 29.811 26.039 21.051
 64 1 2 0.000 29.175 26.549 18.634
 65 1 2 0.000 30.396 28.324 17.424
 66 1 11 0.000 32.472 29.778 18.451
 67 1 11 0.000 31.777 27.061 22.436
 68 1 2 0.000 32.878 29.045 20.883
 69 1 6 0.000 32.420 26.409 22.401
 70 1 6 0.000 32.536 30.647 19.053
 71 1 1 0.000 15.807 39.771 20.751
 72 1 1 0.000 14.884 40.724 20.261
 73 1 1 0.000 13.647 40.901 20.973
 74 1 1 0.000 15.577 39.039 21.905
 75 1 1 0.000 14.306 39.183 22.597
 76 1 1 0.000 13.348 40.114 22.099
 77 1 2 0.000 16.602 39.495 20.133
 78 1 2 0.000 15.084 41.213 19.270
 79 1 2 0.000 12.971 41.645 20.642
 80 1 11 0.000 12.062 40.228 22.749
 81 1 11 0.000 16.621 38.222 22.466
 82 1 2 0.000 14.113 38.653 23.445
 83 1 6 0.000 16.698 37.229 22.000
 84 1 6 0.000 11.291 40.241 22.003
 85 1 1 0.000 53.135 48.156 40.789
 86 1 1 0.000 11.289 49.314 41.140
 87 1 1 0.000 12.564 49.679 40.629
 88 1 1 0.000 11.297 47.279 39.834
 89 1 1 0.000 12.581 47.635 39.316
 90 1 1 0.000 13.221 48.837 39.712
 91 1 2 0.000 52.138 48.025 41.216
 92 1 2 0.000 53.280 50.089 41.745
 93 1 2 0.000 12.988 50.676 40.871
 94 1 11 0.000 14.348 49.229 39.050
 95 1 11 0.000 53.264 45.983 39.576
 96 1 2 0.000 12.996 46.967 38.564
 97 1 6 0.000 53.245 45.650 38.652
 98 1 6 0.000 14.188 49.244 38.021
 99 1 1 0.000 43.157 31.208 34.775
 100 1 1 0.000 43.559 30.046 35.384
 101 1 1 0.000 44.927 29.672 35.300
 102 1 1 0.000 44.072 32.094 34.146
 103 1 1 0.000 45.429 31.746 34.114
 104 1 1 0.000 45.858 30.527 34.619
 105 1 2 0.000 42.073 31.392 34.900
 106 1 2 0.000 42.954 29.336 35.877
 107 1 2 0.000 45.287 28.733 35.639
 108 1 11 0.000 47.188 30.100 34.441
 109 1 11 0.000 43.575 33.267 33.549
 110 1 2 0.000 46.223 32.366 33.658
 111 1 6 0.000 42.907 33.793 34.078
 112 1 6 0.000 47.421 29.207 33.983
 113 1 1 0.000 40.623 25.189 48.455
 114 1 1 0.000 39.996 24.879 47.210
 115 1 1 0.000 40.615 23.884 46.364
 116 1 1 0.000 41.795 24.602 48.853
 117 1 1 0.000 42.415 23.641 47.971
 118 1 1 0.000 41.834 23.320 46.772
 119 1 2 0.000 40.171 25.867 49.180
 120 1 2 0.000 39.020 25.385 46.981
 121 1 2 0.000 40.152 23.549 45.472
 122 1 11 0.000 42.449 22.293 46.001
 123 1 4 0.000 42.342 24.913 50.084
 124 1 2 0.000 43.379 23.227 48.357
 125 1 6 0.000 43.350 24.879 50.139
 126 1 6 0.000 43.132 22.580 45.238
 127 1 1 0.000 20.190 21.418 10.515
 128 1 1 0.000 21.059 22.471 10.138
 129 1 1 0.000 21.979 23.005 11.037
 130 1 1 0.000 20.291 20.948 11.848
 131 1 1 0.000 21.280 21.419 12.717
 132 1 1 0.000 22.130 22.402 12.298
 133 1 2 0.000 19.397 21.057 9.850
 134 1 2 0.000 20.961 22.822 9.141
 135 1 2 0.000 22.626 23.805 10.802
 136 1 4 0.000 23.168 22.838 13.157
 137 1 4 0.000 19.369 19.962 12.259
 138 1 2 0.000 21.351 21.051 13.746
 139 1 6 0.000 19.142 19.279 11.575
 140 1 6 0.000 23.957 23.214 12.589
 141 1 1 0.000 50.216 37.657 51.774
 142 1 1 0.000 50.269 36.441 52.449
 143 1 1 0.000 49.222 36.131 53.391
 144 1 1 0.000 49.107 38.525 51.993
 145 1 1 0.000 48.031 38.129 52.758
 146 1 1 0.000 48.086 36.901 53.364
 147 1 2 0.000 51.031 38.056 51.185
 148 1 2 0.000 51.159 35.883 52.502
 149 1 2 0.000 49.306 35.282 54.077
 150 1 4 0.000 47.048 36.510 54.186
 151 1 4 0.000 49.169 39.814 51.373
 152 1 2 0.000 47.150 38.661 52.909
 153 1 6 0.000 48.489 40.066 50.673
 154 1 6 0.000 47.243 35.776 54.928
 155 1 1 0.000 47.663 52.634 30.310
 156 1 1 0.000 48.656 51.653 30.201
 157 1 1 0.000 49.864 51.802 30.935
 158 1 1 0.000 47.872 11.263 31.082
 159 1 1 0.000 49.043 11.407 31.818
 160 1 1 0.000 49.975 52.884 31.826
 161 1 2 0.000 46.799 52.446 29.741
 162 1 2 0.000 48.554 50.718 29.692
 163 1 2 0.000 50.487 50.910 30.856
 164 1 11 0.000 51.041 53.013 32.731
 165 1 11 0.000 46.810 12.219 31.109
 166 1 2 0.000 49.156 12.289 32.400
 167 1 6 0.000 46.346 12.401 30.215
 168 1 6 0.000 50.902 53.712 33.423
 169 1 1 0.000 37.150 17.930 15.792
 170 1 1 0.000 37.247 17.067 14.663
 171 1 1 0.000 38.413 16.342 14.417
 172 1 1 0.000 38.156 18.086 16.700
 173 1 1 0.000 39.253 17.245 16.517
 174 1 1 0.000 39.449 16.518 15.319
 175 1 2 0.000 36.253 18.459 15.952
 176 1 2 0.000 36.529 17.032 13.885
 177 1 2 0.000 38.482 15.729 13.543
 178 1 11 0.000 40.751 16.271 14.948
 179 1 11 0.000 38.044 19.020 17.820
 180 1 2 0.000 40.059 17.215 17.204
 181 1 6 0.000 37.170 19.045 18.319
 182 1 6 0.000 41.377 16.120 15.724
 183 1 1 0.000 46.028 43.843 43.318
 184 1 1 0.000 46.006 44.399 44.588
 185 1 1 0.000 46.078 43.612 45.752
 186 1 1 0.000 46.065 42.415 43.186
 187 1 1 0.000 46.060 41.619 44.286
 188 1 1 0.000 46.117 42.204 45.622
 189 1 2 0.000 46.017 44.486 42.449
 190 1 2 0.000 45.913 45.458 44.686
 191 1 2 0.000 46.132 44.100 46.686
 192 1 11 0.000 46.178 41.359 46.779
 193 1 11 0.000 46.188 41.746 41.956
 194 1 2 0.000 46.401 40.591 44.184
 195 1 6 0.000 46.870 41.015 41.931
 196 1 6 0.000 45.440 40.661 46.770
 197 1 1 0.000 28.796 13.904 41.333
 198 1 1 0.000 28.876 14.369 42.638
 199 1 1 0.000 28.759 13.496 43.756
 200 1 1 0.000 28.581 12.524 41.062
 201 1 1 0.000 28.572 11.632 42.177
 202 1 1 0.000 28.605 12.106 43.515
 203 1 2 0.000 29.175 14.490 40.490
 204 1 2 0.000 29.049 15.413 42.903
 205 1 2 0.000 28.823 13.833 44.792
 206 1 11 0.000 28.401 11.284 44.678
 207 1 11 0.000 28.340 11.957 39.805
 208 1 2 0.000 28.568 53.121 42.010
 209 1 6 0.000 27.404 11.740 39.469
 210 1 6 0.000 28.933 11.646 45.419
 211 1 1 0.000 35.192 36.772 20.948
 212 1 1 0.000 35.701 37.276 22.134
 213 1 1 0.000 36.165 36.410 23.182
 214 1 1 0.000 35.261 35.343 20.701
 215 1 1 0.000 35.902 34.579 21.666
 216 1 1 0.000 36.303 35.034 22.924
 217 1 2 0.000 34.709 37.425 20.247
 218 1 2 0.000 35.844 38.335 22.265
 219 1 2 0.000 36.467 36.910 24.182
 220 1 11 0.000 37.004 34.175 23.778
 221 1 11 0.000 34.691 34.840 19.512
 222 1 2 0.000 36.063 33.539 21.430
 223 1 6 0.000 33.769 35.199 19.317
 224 1 6 0.000 37.512 33.370 23.332
 225 1 1 0.000 23.392 39.425 41.702
 226 1 1 0.000 23.247 40.199 40.533
 227 1 1 0.000 23.005 39.578 39.239
 228 1 1 0.000 23.163 38.026 41.631
 229 1 1 0.000 22.809 37.405 40.380
 230 1 1 0.000 22.794 38.149 39.180
 231 1 2 0.000 23.571 39.882 42.638
 232 1 2 0.000 23.448 41.248 40.615
 233 1 2 0.000 22.943 40.202 38.414
 234 1 11 0.000 22.323 37.670 37.944
 235 1 11 0.000 23.358 37.215 42.785
 236 1 2 0.000 22.571 36.346 40.317
 237 1 6 0.000 23.923 37.615 43.524
 238 1 6 0.000 21.515 38.187 37.580
 239 1 1 0.000 32.316 50.301 44.200
 240 1 1 0.000 31.317 50.816 45.025
 241 1 1 0.000 30.953 50.116 46.154
 242 1 1 0.000 32.964 49.051 44.453
 243 1 1 0.000 32.519 48.325 45.590
 244 1 1 0.000 31.649 48.939 46.488
 245 1 2 0.000 32.608 50.957 43.459
 246 1 2 0.000 30.837 51.729 44.741
 247 1 2 0.000 30.199 50.492 46.838
 248 1 11 0.000 31.247 48.328 47.692
 249 1 11 0.000 34.043 48.643 43.628
 250 1 2 0.000 33.065 47.373 45.785
 251 1 6 0.000 34.706 49.392 43.372
 252 1 6 0.000 31.252 48.991 48.433
 253 1 1 0.000 18.312 51.579 28.971
 254 1 1 0.000 18.387 50.215 28.661
 255 1 1 0.000 17.374 49.381 29.128
 256 1 1 0.000 17.130 52.136 29.466
 257 1 1 0.000 16.133 51.282 29.921
 258 1 1 0.000 16.262 49.923 29.840
 259 1 2 0.000 19.218 52.137 28.656
 260 1 2 0.000 19.154 49.746 28.031
 261 1 2 0.000 17.476 48.308 28.961
 262 1 11 0.000 15.290 49.082 30.282
 263 1 11 0.000 16.822 53.511 29.541
 264 1 2 0.000 15.184 51.754 30.115
 265 1 6 0.000 15.797 53.625 29.502
 266 1 6 0.000 15.409 48.141 29.953
 267 1 1 0.000 26.478 23.159 52.346
 268 1 1 0.000 25.928 24.085 53.316
 269 1 1 0.000 25.063 25.056 52.832
 270 1 1 0.000 26.038 23.135 51.017
 271 1 1 0.000 25.050 24.011 50.594
 272 1 1 0.000 24.623 25.066 51.492
 273 1 2 0.000 27.167 22.386 52.769
 274 1 2 0.000 26.275 24.112 54.379
 275 1 2 0.000 24.701 25.834 53.542
 276 1 4 0.000 23.768 26.138 51.058
 277 1 8 0.000 26.418 22.149 50.111
 278 1 2 0.000 24.686 23.934 49.569
 279 1 6 0.000 27.285 21.612 50.287
 280 1 6 0.000 23.837 27.038 51.578
 281 1 1 0.000 18.544 11.637 18.952
 282 1 1 0.000 18.969 53.008 18.237
 283 1 1 0.000 18.454 51.730 18.594
 284 1 1 0.000 17.611 11.543 20.062
 285 1 1 0.000 16.947 52.827 20.291
 286 1 1 0.000 17.474 51.660 19.623
 287 1 2 0.000 19.062 12.584 18.775
 288 1 2 0.000 19.732 53.142 17.420
 289 1 2 0.000 18.828 50.788 18.282
 290 1 11 0.000 17.145 50.336 20.051
 291 1 11 0.000 17.257 12.735 20.778
 292 1 2 0.000 16.190 52.777 21.087
 293 1 6 0.000 18.078 13.307 20.816
 294 1 6 0.000 16.213 50.055 19.916
 295 1 1 0.000 32.263 23.863 45.995
 296 1 1 0.000 31.771 24.278 44.809
 297 1 1 0.000 31.548 25.629 44.520
 298 1 1 0.000 32.759 24.838 46.898
 299 1 1 0.000 32.608 26.198 46.672
 300 1 1 0.000 32.004 26.626 45.428
 301 1 2 0.000 32.374 22.803 46.165
 302 1 2 0.000 31.341 23.653 44.079
 303 1 2 0.000 30.895 25.908 43.691
 304 1 11 0.000 31.678 27.979 45.249
 305 1 11 0.000 33.287 24.432 48.109
 306 1 2 0.000 33.092 26.975 47.280
 307 1 6 0.000 34.283 24.480 48.271
 308 1 6 0.000 31.090 28.368 45.974
 309 1 1 0.000 42.457 51.299 29.639
 310 1 1 0.000 42.867 51.207 31.020
 311 1 1 0.000 42.357 50.262 31.873
 312 1 1 0.000 41.551 50.351 29.182
 313 1 1 0.000 40.871 49.520 30.096
 314 1 1 0.000 41.294 49.478 31.442
 315 1 2 0.000 42.874 51.974 28.880
 316 1 2 0.000 43.658 51.875 31.326
 317 1 2 0.000 42.635 50.237 32.937
 318 1 11 0.000 40.639 48.583 32.367
 319 1 11 0.000 41.088 50.306 27.811
 320 1 2 0.000 39.962 48.952 29.703
 321 1 6 0.000 40.618 51.081 27.404
 322 1 6 0.000 40.726 48.877 33.325
 323 1 1 0.000 53.471 22.842 35.246
 324 1 1 0.000 11.960 23.220 34.264
 325 1 1 0.000 13.289 23.297 34.692
 326 1 1 0.000 11.261 22.331 36.485
 327 1 1 0.000 12.603 22.311 36.844
 328 1 1 0.000 13.608 22.865 35.970
 329 1 2 0.000 52.444 22.870 34.880
 330 1 2 0.000 11.659 23.589 33.299
 331 1 2 0.000 14.032 23.703 34.069
 332 1 11 0.000 14.971 22.875 36.350
 333 1 11 0.000 52.748 22.030 37.389
 334 1 2 0.000 12.780 21.979 37.839
 335 1 6 0.000 53.034 22.081 38.316
 336 1 6 0.000 15.379 21.932 36.167
 337 1 1 0.000 47.075 29.309 47.730
 338 1 1 0.000 46.122 29.677 48.703
 339 1 1 0.000 46.460 29.678 50.097
 340 1 1 0.000 48.354 28.962 48.117
 341 1 1 0.000 48.693 29.001 49.502
 342 1 1 0.000 47.744 29.382 50.433
 343 1 2 0.000 46.772 29.279 46.680
 344 1 2 0.000 45.174 29.963 48.427
 345 1 2 0.000 45.743 30.041 50.837
 346 1 4 0.000 48.046 29.639 51.775
 347 1 11 0.000 49.320 28.523 47.203
 348 1 2 0.000 49.705 28.706 49.870
 349 1 6 0.000 50.250 28.892 47.225
 350 1 6 0.000 47.617 30.459 52.139
 351 1 1 0.000 45.256 33.182 52.108
 352 1 1 0.000 44.088 32.885 52.737
 353 1 1 0.000 42.955 32.503 52.021
 354 1 1 0.000 45.355 33.130 50.698
 355 1 1 0.000 44.172 32.910 49.975
 356 1 1 0.000 42.972 32.667 50.674
 357 1 2 0.000 46.125 33.380 52.740
 358 1 2 0.000 44.173 32.952 53.864
 359 1 2 0.000 42.026 32.343 52.581
 360 1 4 0.000 41.744 32.540 49.972
 361 1 11 0.000 46.640 33.428 50.056
 362 1 2 0.000 44.160 32.942 48.896
 363 1 6 0.000 46.564 33.735 49.084
 364 1 6 0.000 41.662 31.922 49.229
 365 1 1 0.000 32.329 50.330 49.990
 366 1 1 0.000 32.598 49.240 50.796
 367 1 1 0.000 31.954 49.175 52.054
 368 1 1 0.000 31.379 51.362 50.368
 369 1 1 0.000 30.956 51.456 51.682
 370 1 1 0.000 31.301 50.366 52.568
 371 1 2 0.000 32.685 50.436 48.949
 372 1 2 0.000 33.221 48.456 50.527
 373 1 2 0.000 32.190 48.330 52.697
 374 1 4 0.000 30.851 50.476 53.887
 375 1 11 0.000 30.622 52.147 49.374
 376 1 2 0.000 30.378 52.303 52.041
 377 1 6 0.000 29.763 51.724 49.139
 378 1 6 0.000 30.047 51.087 54.104
 379 1 1 0.000 31.332 32.159 33.580
 380 1 1 0.000 30.841 33.312 32.987
 381 1 1 0.000 30.670 33.398 31.580
 382 1 1 0.000 31.755 31.052 32.776
 383 1 1 0.000 31.658 31.204 31.385
 384 1 1 0.000 31.185 32.367 30.761
 385 1 2 0.000 31.504 32.204 34.669
 386 1 2 0.000 30.636 34.212 33.562
 387 1 2 0.000 30.280 34.321 31.144
 388 1 11 0.000 31.011 32.336 29.324
 389 1 11 0.000 31.955 29.771 33.302
 390 1 2 0.000 31.826 30.320 30.719
 391 1 6 0.000 31.333 29.524 34.053
 392 1 6 0.000 30.936 31.366 28.887
 393 1 1 0.000 23.468 33.195 51.793
 394 1 1 0.000 24.027 34.336 52.365
 395 1 1 0.000 25.422 34.551 52.324
 396 1 1 0.000 24.220 32.330 51.030
 397 1 1 0.000 25.578 32.662 50.757
 398 1 1 0.000 26.200 33.762 51.406
 399 1 2 0.000 22.413 33.006 51.779
 400 1 2 0.000 23.471 35.092 52.910
 401 1 2 0.000 25.930 35.450 52.839
 402 1 4 0.000 27.540 34.050 51.221
 403 1 11 0.000 23.637 31.167 50.518
 404 1 2 0.000 26.202 31.965 50.125
 405 1 6 0.000 24.304 30.407 50.544
 406 1 6 0.000 27.812 34.992 51.428
 407 1 1 0.000 36.237 47.661 47.694
 408 1 1 0.000 36.033 48.405 48.883
 409 1 1 0.000 36.196 47.731 50.190
 410 1 1 0.000 36.472 46.279 47.824
 411 1 1 0.000 36.677 45.629 49.065
 412 1 1 0.000 36.470 46.314 50.218
 413 1 2 0.000 36.134 48.108 46.675
 414 1 2 0.000 35.667 49.447 48.874
 415 1 2 0.000 36.211 48.282 51.093
 416 1 4 0.000 36.878 45.770 51.511
 417 1 11 0.000 36.731 45.412 46.699
 418 1 2 0.000 36.950 44.613 49.024
 419 1 6 0.000 36.236 44.570 46.886
 420 1 6 0.000 37.710 45.174 51.459
 421 1 1 0.000 49.989 38.348 31.830
 422 1 1 0.000 51.374 38.358 31.770
 423 1 1 0.000 52.154 37.406 31.057
 424 1 1 0.000 49.322 37.345 31.057
 425 1 1 0.000 50.102 36.389 30.324
 426 1 1 0.000 51.461 36.407 30.377
 427 1 2 0.000 49.484 39.047 32.419
 428 1 2 0.000 51.911 39.153 32.318
 429 1 2 0.000 53.233 37.458 31.040
 430 1 11 0.000 52.210 35.388 29.789
 431 1 11 0.000 47.934 37.286 31.026
 432 1 2 0.000 49.625 35.609 29.751
 433 1 6 0.000 47.558 37.116 31.967
 434 1 6 0.000 51.946 34.485 29.985
 435 1 1 0.000 13.139 49.388 27.465
 436 1 1 0.000 14.366 48.787 27.307
 437 1 1 0.000 14.391 47.376 27.189
 438 1 1 0.000 11.937 48.629 27.315
 439 1 1 0.000 11.964 47.254 27.217
 440 1 1 0.000 13.203 46.601 27.076
 441 1 2 0.000 13.069 50.459 27.675
 442 1 2 0.000 15.280 49.299 27.268
 443 1 2 0.000 15.297 46.806 26.988
 444 1 11 0.000 13.047 45.257 26.712
 445 1 11 0.000 53.206 49.375 27.201
 446 1 2 0.000 53.517 46.756 27.127
 447 1 6 0.000 53.273 50.259 26.733
 448 1 6 0.000 12.058 45.004 26.543
 449 1 1 0.000 33.237 27.815 52.440
 450 1 1 0.000 34.007 26.659 52.241
 451 1 1 0.000 35.399 26.791 52.002
 452 1 1 0.000 33.845 29.119 52.396
 453 1 1 0.000 35.245 29.249 52.144
 454 1 1 0.000 35.967 28.089 51.908
 455 1 2 0.000 32.174 27.680 52.560
 456 1 2 0.000 33.499 25.685 52.316
 457 1 2 0.000 36.012 25.935 51.856
 458 1 11 0.000 37.385 28.255 51.766
 459 1 4 0.000 33.128 30.326 52.699
 460 1 2 0.000 35.729 30.212 52.195
 461 1 6 0.000 33.376 31.133 52.167
 462 1 6 0.000 37.860 28.783 52.490
 463 1 1 0.000 49.927 14.936 47.589
 464 1 1 0.000 48.618 15.367 47.378
 465 1 1 0.000 47.522 14.627 47.831
 466 1 1 0.000 50.141 13.665 48.151
 467 1 1 0.000 49.079 12.845 48.456
 468 1 1 0.000 47.784 13.367 48.361
 469 1 2 0.000 50.802 15.542 47.331
 470 1 2 0.000 48.470 16.308 46.979
 471 1 2 0.000 46.490 14.992 47.729
 472 1 11 0.000 46.638 12.708 48.814
 473 1 11 0.000 51.488 13.270 48.428
 474 1 2 0.000 49.269 11.861 48.844
 475 1 6 0.000 52.110 13.806 47.890
 476 1 6 0.000 46.108 12.159 48.147
 477 1 1 0.000 51.705 25.576 52.133
 478 1 1 0.000 50.813 25.453 51.109
 479 1 1 0.000 50.204 24.201 50.962
 480 1 1 0.000 51.812 24.619 53.151
 481 1 1 0.000 51.259 23.379 52.964
 482 1 1 0.000 50.386 23.191 51.869
 483 1 2 0.000 52.160 26.538 52.211
 484 1 2 0.000 50.586 26.223 50.346
 485 1 2 0.000 49.436 24.028 50.123
 486 1 11 0.000 49.676 21.951 51.824
 487 1 4 0.000 52.280 24.815 54.492
 488 1 2 0.000 51.263 22.602 53.740
 489 1 6 0.000 51.838 24.313 55.296
 490 1 6 0.000 50.297 21.129 51.872
 491 1 1 0.000 16.543 31.298 34.613
 492 1 1 0.000 15.723 32.342 35.054
 493 1 1 0.000 16.182 33.546 35.562
 494 1 1 0.000 17.921 31.429 34.980
 495 1 1 0.000 18.405 32.638 35.690
 496 1 1 0.000 17.570 33.754 35.827
 497 1 2 0.000 16.161 30.425 34.028
 498 1 2 0.000 14.646 32.288 34.901
 499 1 2 0.000 15.474 34.271 36.021
 500 1 11 0.000 17.892 34.894 36.586
 501 1 11 0.000 18.718 30.290 34.535
 502 1 2 0.000 19.462 32.688 35.992
 503 1 6 0.000 19.374 30.518 33.774
 504 1 6 0.000 18.620 34.869 37.276
 505 1 1 0.000 22.124 19.182 17.275
 506 1 1 0.000 21.714 19.098 18.612
 507 1 1 0.000 22.475 19.588 19.678
 508 1 1 0.000 23.300 19.846 16.986
 509 1 1 0.000 24.017 20.450 18.090
 510 1 1 0.000 23.599 20.332 19.397
 511 1 2 0.000 21.485 18.679 16.454
 512 1 2 0.000 20.776 18.589 18.859
 513 1 2 0.000 22.181 19.492 20.709
 514 1 11 0.000 24.235 21.088 20.402
 515 1 4 0.000 23.805 19.796 15.653
 516 1 2 0.000 24.909 21.035 17.907
 517 1 6 0.000 23.057 19.975 14.991
 518 1 6 0.000 24.401 22.069 20.213
 519 1 1 0.000 45.024 38.194 49.345
 520 1 1 0.000 45.579 36.942 49.132
 521 1 1 0.000 45.589 36.424 47.793
 522 1 1 0.000 44.354 38.869 48.325
 523 1 1 0.000 44.537 38.440 46.999
 524 1 1 0.000 45.068 37.204 46.753
 525 1 2 0.000 44.996 38.519 50.378
 526 1 2 0.000 45.894 36.347 49.987
 527 1 2 0.000 46.120 35.428 47.664
 528 1 11 0.000 44.997 36.658 45.449
 529 1 11 0.000 43.551 39.941 48.603
 530 1 2 0.000 44.194 39.042 46.190
 531 1 6 0.000 43.997 40.815 48.739
 532 1 6 0.000 44.187 36.108 45.260
 533 1 1 0.000 29.318 28.201 28.479
 534 1 1 0.000 29.451 27.296 27.389
 535 1 1 0.000 30.227 26.123 27.509
 536 1 1 0.000 29.783 27.852 29.694
 537 1 1 0.000 30.714 26.770 29.795
 538 1 1 0.000 30.728 25.776 28.762
 539 1 2 0.000 28.620 28.957 28.345
 540 1 2 0.000 28.886 27.580 26.480
 541 1 2 0.000 30.378 25.416 26.695
 542 1 11 0.000 31.258 24.519 29.064
 543 1 11 0.000 29.401 28.516 30.929
 544 1 2 0.000 31.064 26.525 30.780
 545 1 6 0.000 30.157 28.833 31.546
 546 1 6 0.000 31.055 23.832 28.368
 547 1 1 0.000 22.254 36.674 48.515
 548 1 1 0.000 22.079 35.794 49.542
 549 1 1 0.000 20.918 35.022 49.579
 550 1 1 0.000 21.355 36.737 47.474
 551 1 1 0.000 20.216 35.861 47.422
 552 1 1 0.000 19.988 35.032 48.535
 553 1 2 0.000 23.070 37.347 48.594
 554 1 2 0.000 22.748 35.889 50.450
 555 1 2 0.000 20.745 34.408 50.450
 556 1 11 0.000 18.878 34.113 48.550
 557 1 11 0.000 21.688 37.478 46.323
 558 1 2 0.000 19.490 35.928 46.608
 559 1 6 0.000 22.620 37.367 45.889
 560 1 6 0.000 18.415 34.115 47.629
 561 1 1 0.000 43.556 49.750 39.997
 562 1 1 0.000 43.524 48.514 40.702
 563 1 1 0.000 42.428 48.105 41.351
 564 1 1 0.000 42.426 50.547 39.972
 565 1 1 0.000 41.208 50.050 40.482
 566 1 1 0.000 41.243 48.777 41.188
 567 1 2 0.000 44.414 50.054 39.396
 568 1 2 0.000 44.407 47.820 40.583
 569 1 2 0.000 42.446 47.095 41.671
 570 1 11 0.000 40.022 48.100 41.310
 571 1 11 0.000 42.358 51.698 39.259
 572 1 2 0.000 40.297 50.532 40.297
 573 1 6 0.000 43.155 51.860 38.674
 574 1 6 0.000 40.060 47.091 41.206
 575 1 1 0.000 35.496 27.021 44.641
 576 1 1 0.000 36.102 26.060 45.532
 577 1 1 0.000 37.107 25.148 45.125
 578 1 1 0.000 36.101 27.093 43.370
 579 1 1 0.000 37.162 26.198 42.974
 580 1 1 0.000 37.595 25.166 43.818
 581 1 2 0.000 34.761 27.719 44.885
 582 1 2 0.000 35.609 26.151 46.528
 583 1 2 0.000 37.461 24.346 45.712
 584 1 11 0.000 38.365 24.078 43.331
 585 1 11 0.000 35.748 28.163 42.495
 586 1 2 0.000 37.635 26.369 42.027
 587 1 6 0.000 34.758 28.421 42.529
 588 1 6 0.000 39.264 24.046 43.776
 589 1 1 0.000 22.727 51.151 15.460
 590 1 1 0.000 22.862 52.478 15.979
 591 1 1 0.000 23.793 52.667 17.023
 592 1 1 0.000 23.563 50.110 15.843
 593 1 1 0.000 24.475 50.288 16.854
 594 1 1 0.000 24.628 51.630 17.410
 595 1 2 0.000 21.942 50.897 14.786
 596 1 2 0.000 22.267 53.266 15.646
 597 1 2 0.000 23.915 53.681 17.390
 598 1 11 0.000 25.556 51.789 18.503
 599 1 11 0.000 23.587 48.908 15.078
 600 1 2 0.000 25.070 49.469 17.233
 601 1 6 0.000 23.958 48.993 14.127
 602 1 6 0.000 25.160 52.320 19.232
 603 1 1 0.000 44.570 43.577 27.192
 604 1 1 0.000 43.197 43.548 26.951
 605 1 1 0.000 42.723 43.678 25.602
 606 1 1 0.000 45.429 43.576 26.104
 607 1 1 0.000 44.986 43.852 24.793
 608 1 1 0.000 43.620 43.927 24.568
 609 1 2 0.000 44.955 43.448 28.208
 610 1 2 0.000 42.544 43.264 27.720
 611 1 2 0.000 41.662 43.761 25.417
 612 1 11 0.000 43.114 44.142 23.251
 613 1 11 0.000 46.770 43.183 26.285
 614 1 2 0.000 45.625 43.932 23.899
 615 1 6 0.000 47.475 43.690 25.742
 616 1 6 0.000 42.331 43.547 22.963
 617 1 1 0.000 24.140 22.472 43.219
 618 1 1 0.000 24.579 23.090 44.358
 619 1 1 0.000 24.599 24.488 44.433
 620 1 1 0.000 23.882 23.189 42.051
 621 1 1 0.000 24.269 24.568 41.965
 622 1 1 0.000 24.522 25.256 43.215
 623 1 2 0.000 24.027 21.350 43.211
 624 1 2 0.000 24.855 22.456 45.260
 625 1 2 0.000 24.826 24.960 45.348
 626 1 11 0.000 24.455 26.618 43.326
 627 1 11 0.000 23.733 22.503 40.846
 628 1 2 0.000 24.309 25.024 40.959
 629 1 6 0.000 24.258 22.811 40.061
 630 1 6 0.000 23.642 27.121 43.024
 631 1 1 0.000 25.530 38.867 20.062
 632 1 1 0.000 25.708 39.906 19.157
 633 1 1 0.000 26.894 40.692 19.274
 634 1 1 0.000 26.422 38.635 21.161
 635 1 1 0.000 27.512 39.492 21.310
 636 1 1 0.000 27.765 40.491 20.366
 637 1 2 0.000 24.756 38.150 19.787
 638 1 2 0.000 25.132 39.920 18.192
 639 1 2 0.000 27.198 41.476 18.592
 640 1 11 0.000 29.023 41.202 20.367
 641 1 11 0.000 26.355 37.412 21.957
 642 1 2 0.000 28.205 39.343 22.112
 643 1 6 0.000 27.211 37.048 22.313
 644 1 6 0.000 29.569 41.138 19.486
 645 1 1 0.000 34.570 53.685 15.300
 646 1 1 0.000 35.275 52.992 16.300
 647 1 1 0.000 34.975 53.105 17.654
 648 1 1 0.000 33.456 11.906 15.681
 649 1 1 0.000 33.091 11.987 17.014
 650 1 1 0.000 33.840 11.398 18.062
 651 1 2 0.000 35.110 11.278 14.334
 652 1 2 0.000 36.275 52.592 16.029
 653 1 2 0.000 35.653 52.727 18.423
 654 1 11 0.000 33.464 11.496 19.398
 655 1 11 0.000 32.710 12.703 14.729
 656 1 2 0.000 32.235 12.565 17.224
 657 1 6 0.000 32.514 13.596 15.254
 658 1 6 0.000 34.118 53.572 20.003
 659 1 1 0.000 14.200 26.277 46.050
 660 1 1 0.000 14.497 25.806 47.333
 661 1 1 0.000 15.665 26.093 48.036
 662 1 1 0.000 15.102 27.242 45.513
 663 1 1 0.000 16.333 27.493 46.152
 664 1 1 0.000 16.645 26.968 47.425
 665 1 2 0.000 13.224 25.979 45.518
 666 1 2 0.000 13.855 25.073 47.734