Random packing of 'slab.lmps', 100 x 'H.lmps', 100 x 'OH.lmps'

6940 atoms
7168 bonds
11130 angles
19475 dihedrals
0 impropers

14 atom types
18 bond types
23 angle types
42 dihedral types

11.246593 53.753407 xlo xhi
11.246593 53.753407 ylo yhi
11.246593 53.753407 zlo zhi

Masses

 1 12.0100000 # CA (carbon aromatic)
 2 1.0080000 # HA (hydrogen aromatic)
 3 12.0100000 # C (carbon in carboxyl)
 4 16.0000000 # O (oxygen)
 5 14.0100000 # N (nitrogen with 1 hydrogen)
 6 1.0080000 # HN (hydrogen on nitrogen)
 7 16.0000000 # OH (protonated carboxyl oxygen)
 8 14.0100000 # NH (nitrogen with 2 hydrogens)
 9 1.0080000 # HO (hydrogen on oxygen)
 10 12.0100000 # LC (crosslinked carbon)
 11 14.0100000 # LN (crosslinked nitrogen)
 12 12.0100000 # CT (terminated carbon on carboxyl group)
 13 1.0080000 # H (free hydrogen for termination)
 14 16.0000000 # OR (reactive oxygen in free hydroxyl)

Pair Coeffs

 1 0.0860000 3.3996695 # CA
 2 0.0150000 2.5996425 # HA
 3 0.0860000 3.3996695 # C
 4 0.2100000 2.9599219 # O
 5 0.1700000 3.2499985 # N
 6 0.0157000 1.0690785 # HN
 7 0.2104000 3.0664734 # OH
 8 0.1700000 3.2499985 # NH
 9 0.0000000 0.0000000 # HO
 10 0.0860000 3.3996695 # LC
 11 0.1700000 3.2499985 # LN
 12 0.0860000 3.3996695 # CT
 13 0.0157000 1.0690785 # H
 14 0.2104000 3.0664734 # OR

Bond Coeffs

 1 harmonic 4.61100000e+02 1.39840000e+00 # CA-CA
 2 harmonic 3.45900000e+02 1.49060000e+00 # CA-C
 3 harmonic 3.45800000e+02 1.08600000e+00 # CA-HA
 4 harmonic 6.37700000e+02 1.21830000e+00 # C-O
 5 harmonic 4.27600000e+02 1.37890000e+00 # LC-LN
 6 harmonic 3.84200000e+02 1.41210000e+00 # N-CA
 7 harmonic 4.03200000e+02 1.01290000e+00 # N-HN
 8 harmonic 4.17900000e+02 1.38590000e+00 # CA-NH
 9 harmonic 4.04600000e+02 1.01210000e+00 # NH-HN
 10 harmonic 3.45900000e+02 1.49060000e+00 # CA-LC
 11 harmonic 6.37700000e+02 1.21830000e+00 # LC-O
 12 harmonic 3.84200000e+02 1.41210000e+00 # LN-CA
 13 harmonic 4.03200000e+02 1.01290000e+00 # LN-HN
 14 harmonic 4.00100000e+02 1.35130000e+00 # CT-OH
 15 harmonic 3.71400000e+02 9.73000000e-01 # OH-HO
 16 harmonic 3.45900000e+02 1.49060000e+00 # CA-CT
 17 harmonic 6.37700000e+02 1.21830000e+00 # CT-O
 18 harmonic 3.71400000e+02 9.73000000e-01 # OR-HO

Angle Coeffs

 1 harmonic 6.66000000e+01 1.20020052e+02 # CA-CA-CA
 2 harmonic 4.82000000e+01 1.19880051e+02 # CA-CA-HA
 3 harmonic 6.87000000e+01 1.22600053e+02 # CA-C-O
 4 harmonic 6.43000000e+01 1.20330052e+02 # CA-CA-C
 5 harmonic 6.77000000e+01 1.15250050e+02 # CA-LC-LN (TMC-side)
 6 harmonic 6.38000000e+01 1.23710053e+02 # LC-LN-CA (MPD-side)
 7 harmonic 4.83000000e+01 1.17550051e+02 # LC-LN-HN
 8 harmonic 7.42000000e+01 1.23050053e+02 # O-LC-LN
 9 harmonic 6.79000000e+01 1.20190052e+02 # N-CA-CA
 10 harmonic 4.76000000e+01 1.16000050e+02 # CA-N-HN
 11 harmonic 6.83000000e+01 1.20950052e+02 # CA-CA-NH
 12 harmonic 4.84000000e+01 1.16070050e+02 # CA-NH-HN
 13 harmonic 7.79000000e+01 1.30250056e+02 # O-C-O (does not exist in protonated monomers)
 14 harmonic 4.01000000e+01 1.15120050e+02 # HN-NH-HN
 15 harmonic 6.87000000e+01 1.22600053e+02 # CA-LC-O
 16 harmonic 6.43000000e+01 1.20330052e+02 # CA-CA-LC
 17 harmonic 6.79000000e+01 1.20190052e+02 # LN-CA-CA
 18 harmonic 4.76000000e+01 1.16000050e+02 # CA-LN-HN
 19 harmonic 6.92000000e+01 1.13450049e+02 # CA-CT-OH
 20 harmonic 4.99000000e+01 1.06550046e+02 # CT-OH-HO
 21 harmonic 7.59000000e+01 1.22100052e+02 # O-CT-OH
 22 harmonic 6.87000000e+01 1.22600053e+02 # CA-CT-O
 23 harmonic 6.43000000e+01 1.20330052e+02 # CA-CA-CT

Dihedral Coeffs

 1 charmm 3.62500000e+00 2 180 0 # CA-CA-CA-CA
 2 charmm 1.10000000e+00 2 180 0 # CA-CA-CA-HA (improper)
 3 charmm 1.00000000e+00 2 180 0 # CA-CA-C-O
 4 charmm 2.50000000e+00 2 180 0 # CA-LC-LN-CA
 5 charmm 1.05000000e+01 2 180 0 # CA-LC-LN-O
 6 charmm 4.50000000e-01 2 180 0 # LC-LN-CA-CA
 7 multi/harmonic 2.00000000e+00 2.00000000e+00 0.00000000e+00 0.00000000e+00 0.00000000e+00 # O-LC-LN-HN
 8 charmm 1.05000000e+00 2 180 0 # CA-CA-NH-HN
 9 charmm 3.62500000e+00 2 180 0 # CA-CA-CA-C
 10 charmm 3.62500000e+00 2 180 0 # CA-CA-CA-LC
 11 charmm 3.62500000e+00 2 180 0 # CA-CA-CA-HA
 12 charmm 3.62500000e+00 2 180 0 # C-CA-CA-HA
 13 charmm 3.62500000e+00 2 180 0 # LC-CA-CA-HA
 14 charmm 3.62500000e+00 2 180 0 # N-CA-CA-CA
 15 charmm 3.62500000e+00 2 180 0 # LN-CA-CA-CA
 16 charmm 3.62500000e+00 2 180 0 # N-CA-CA-HA
 17 charmm 3.62500000e+00 2 180 0 # LN-CA-CA-HA
 18 charmm 3.62500000e+00 2 180 0 # CA-CA-CA-NH
 19 charmm 3.62500000e+00 2 180 0 # HA-CA-CA-HA
 20 charmm 3.62500000e+00 2 180 0 # HA-CA-CA-NH
 21 charmm 1.10000000e+00 2 180 0 # CA-O-OH-CT (improper) (changed from CA-O-O-C in unprotonated)
 22 charmm 1.10000000e+00 2 180 0 # CA-CA-CA-C (improper)
 23 charmm 1.10000000e+00 2 180 0 # CA-CA-CA-LC (improper)
 24 charmm 1.10000000e+00 2 180 0 # LC-CA-LN-HN (improper)
 25 charmm 1.10000000e+00 2 180 0 # CA-CA-CA-N (improper)
 26 charmm 1.10000000e+00 2 180 0 # CA-CA-CA-LN (improper)
 27 charmm 1.10000000e+00 2 180 0 # CA-CA-CA-NH (improper)
 28 charmm 1.10000000e+00 2 180 0 # CA-HN-NH-HN (improper)
 29 charmm 1.00000000e+00 2 180 0 # CA-CA-LC-O
 30 charmm 1.00000000e+00 2 180 0 # CA-CA-LC-LN
 31 charmm 2.50000000e+00 2 180 0 # CA-LC-LN-HN
 32 charmm 2.50000000e+00 2 180 0 # O-LC-LN-CA
 33 charmm 2.50000000e+00 2 180 0 # O-LC-LN-HN
 34 charmm 4.50000000e-01 2 180 0 # HN-LN-CA-CA
 35 charmm 2.30000000e+00 2 180 0 # CA-CT-OH-HO
 36 multi/harmonic 1.90000000e+00 1.90000000e+00 0.00000000e+00 0.00000000e+00 0.00000000e+00 # O-CT-OH-HO
 37 charmm 4.50000000e-01 2 180 0 # CA-CA-N-HN
 38 charmm 1.00000000e+00 2 180 0 # CA-CA-CT-OH
 39 charmm 1.00000000e+00 2 180 0 # CA-CA-CT-O
 40 charmm 3.62500000e+00 2 180 0 # CA-CA-CA-CT
 41 charmm 3.62500000e+00 2 180 0 # CT-CA-CA-HA
 42 charmm 1.10000000e+00 2 180 0 # CA-CA-CA-CT (improper)

Atoms

 1 1 1 -0.0632 29.659600 11.958100 35.860500
 2 1 1 -0.0801 29.647300 13.393000 35.896300
 3 1 1 -0.0632 30.881500 14.102400 36.180200
 4 1 1 0.0078 30.879900 11.280400 36.099700
 5 1 1 -0.043 32.066600 11.958800 36.245600
 6 1 1 0.0078 32.090200 13.421900 36.171700
 7 1 2 0.0866 28.780700 11.368500 35.654300
 8 1 2 0.0839 28.729800 13.959000 35.820200
 9 1 2 0.0866 30.818600 15.228400 36.265200
 10 1 11 -0.2514 33.391800 14.075200 36.249900
 11 1 11 -0.2514 30.818300 52.350024 36.125200
 12 1 2 0.0896 32.998100 11.412900 36.338200
 13 1 6 0.1829 30.185700 51.975714 36.837500
 14 1 6 0.1829 34.123000 13.494900 36.609900
 15 1 1 -0.0632 27.806800 21.086800 36.821100
 16 1 1 -0.0801 27.410400 21.803900 35.657000
 17 1 1 -0.0632 28.229800 22.835000 35.176200
 18 1 1 0.0078 28.887800 21.515900 37.563200
 19 1 1 -0.043 29.574000 22.655000 37.170800
 20 1 1 0.0078 29.309000 23.257700 35.943000
 21 1 2 0.0866 27.208600 20.277700 37.199700
 22 1 2 0.0839 26.574700 21.501300 35.103000
 23 1 2 0.0866 27.953900 23.258400 34.224400
 24 1 11 -0.2514 30.412300 23.874000 35.394600
 25 1 11 -0.2514 29.304200 20.786700 38.677200
 26 1 2 0.0896 30.422300 22.885100 37.803400
 27 1 6 0.1829 28.783100 20.860000 39.550600
 28 1 6 0.1829 31.303300 23.592900 35.767900
 29 1 1 -0.0632 48.085834 27.087000 37.206500
 30 1 1 -0.0801 47.660124 26.633500 35.930200
 31 1 1 -0.0632 46.343034 26.175000 35.703100
 32 1 1 0.0078 47.114904 27.116400 38.202200
 33 1 1 -0.043 45.866554 26.593100 37.984400
 34 1 1 0.0078 45.465134 26.107500 36.780200
 35 1 2 0.0866 49.065264 27.537800 37.301000
 36 1 2 0.0839 48.388544 26.731900 35.108700
 37 1 2 0.0866 46.094424 25.773300 34.746900
 38 1 11 -0.2514 44.169064 25.546700 36.718600
 39 1 11 -0.2514 47.234304 27.643400 39.503400
 40 1 2 0.0896 45.046174 26.715400 38.696600
 41 1 6 0.1829 46.360554 27.389500 40.025400
 42 1 6 0.1829 43.554204 25.939500 37.306300
 43 1 1 -0.0632 11.934100 20.866186 21.101600
 44 1 1 -0.0801 53.501914 21.862086 21.266900
 45 1 1 -0.0632 52.686214 21.762386 22.371600
 46 1 1 0.0078 12.046800 19.754086 21.948000
 47 1 1 -0.043 53.660614 19.645786 23.020900
 48 1 1 0.0078 52.742614 20.715886 23.300600
 49 1 2 0.0866 12.619700 20.923186 20.292400
 50 1 2 0.0839 53.412814 22.726786 20.624900
 51 1 2 0.0866 52.055504 22.552086 22.582000
 52 1 11 -0.2514 51.736384 20.558286 24.285900
 53 1 11 -0.2514 13.173500 18.866886 21.796800
 54 1 2 0.0896 53.605714 18.797086 23.627500
 55 1 6 0.1829 13.958400 19.377686 21.411900
 56 1 6 0.1829 51.381734 19.638686 24.390000
 57 1 1 -0.0632 30.285700 26.793700 20.494300
 58 1 1 -0.0801 29.951900 27.115700 19.129000
 59 1 1 -0.0632 30.638400 28.069100 18.457000
 60 1 1 0.0078 31.326600 27.516600 21.112700
 61 1 1 -0.043 32.011900 28.471700 20.437800
 62 1 1 0.0078 31.665500 28.737300 19.083000
 63 1 2 0.0866 29.810800 26.038800 21.051000
 64 1 2 0.0839 29.174900 26.549500 18.634000
 65 1 2 0.0866 30.396300 28.323700 17.423700
 66 1 11 -0.2514 32.472200 29.778100 18.451100
 67 1 11 -0.2514 31.776800 27.061400 22.435600
 68 1 2 0.0896 32.878400 29.044700 20.882700
 69 1 6 0.1829 32.420000 26.408800 22.400900
 70 1 6 0.1829 32.536500 30.647000 19.052600
 71 1 1 -0.0632 15.806700 39.770864 20.750700
 72 1 1 -0.0801 14.883700 40.723884 20.260700
 73 1 1 -0.0632 13.647000 40.900524 20.973100
 74 1 1 0.0078 15.577000 39.039494 21.905000
 75 1 1 -0.043 14.306300 39.183054 22.596900
 76 1 1 0.0078 13.347700 40.114014 22.099300
 77 1 2 0.0866 16.601900 39.495314 20.132500
 78 1 2 0.0839 15.084300 41.212554 19.270000
 79 1 2 0.0866 12.971300 41.645129 20.641700
 80 1 11 -0.2514 12.062000 40.227964 22.748600
 81 1 11 -0.2514 16.621100 38.221864 22.466000
 82 1 2 0.0896 14.113100 38.653034 23.445400
 83 1 6 0.1829 16.698500 37.228994 22.000500
 84 1 6 0.1829 11.290600 40.240814 22.002900
 85 1 1 -0.0632 53.135000 48.156200 40.789074
 86 1 1 -0.0801 11.289486 49.314000 41.139564
 87 1 1 -0.0632 12.563586 49.679100 40.628984
 88 1 1 0.0078 11.297286 47.279400 39.833974
 89 1 1 -0.043 12.581386 47.635100 39.316304
 90 1 1 0.0078 13.221086 48.836700 39.711674
 91 1 2 0.0866 52.138100 48.025200 41.215884
 92 1 2 0.0839 53.280400 50.089100 41.744628
 93 1 2 0.0866 12.988086 50.676400 40.870514
 94 1 11 -0.2514 14.347786 49.228900 39.049654
 95 1 11 -0.2514 53.263500 45.983200 39.576394
 96 1 2 0.0896 12.995586 46.966800 38.564154
 97 1 6 0.1829 53.245400 45.650000 38.651674
 98 1 6 0.1829 14.188286 49.244400 38.021124
 99 1 1 -0.0632 43.157248 31.207986 34.774700
 100 1 1 -0.0801 43.558864 30.046086 35.383700
 101 1 1 -0.0632 44.926784 29.672286 35.300300
 102 1 1 0.0078 44.072254 32.093686 34.146100
 103 1 1 -0.043 45.429034 31.745786 34.114200
 104 1 1 0.0078 45.857514 30.526686 34.618800
 105 1 2 0.0866 42.072802 31.392186 34.899700
 106 1 2 0.0839 42.954419 29.336386 35.876800
 107 1 2 0.0866 45.287394 28.733386 35.638800
 108 1 11 -0.2514 47.188384 30.099786 34.440500
 109 1 11 -0.2514 43.575264 33.266586 33.549000
 110 1 2 0.0896 46.222704 32.366486 33.658000
 111 1 6 0.1829 42.907298 33.793086 34.078000
 112 1 6 0.1829 47.420674 29.207286 33.983300
 113 1 1 -0.0632 40.623124 25.189000 48.455484
 114 1 1 -0.0801 39.996494 24.879100 47.210044
 115 1 1 -0.0632 40.614964 23.884400 46.363654
 116 1 1 0.0078 41.795179 24.601700 48.852884
 117 1 1 -0.043 42.415200 23.640700 47.970804
 118 1 1 0.0078 41.834176 23.320500 46.772364
 119 1 2 0.0866 40.170544 25.866700 49.179704
 120 1 2 0.0839 39.019704 25.384900 46.981304
 121 1 2 0.0866 40.151584 23.549200 45.471854
 122 1 11 -0.2514 42.449370 22.293400 46.000864
 123 1 4 -0.2514 42.341831 24.912500 50.084054
 124 1 2 0.0896 43.378983 23.227500 48.356554
 125 1 6 0.1829 43.350083 24.878800 50.139494
 126 1 6 0.1829 43.132342 22.580400 45.237944
 127 1 1 -0.0632 20.190400 21.418100 10.515000
 128 1 1 -0.0801 21.059400 22.471500 10.138000
 129 1 1 -0.0632 21.979000 23.004500 11.036800
 130 1 1 0.0078 20.291200 20.947600 11.848200
 131 1 1 -0.043 21.280100 21.419500 12.717400
 132 1 1 0.0078 22.129800 22.402200 12.297900
 133 1 2 0.0866 19.396700 21.056800 9.850490
 134 1 2 0.0839 20.960800 22.822100 9.140530
 135 1 2 0.0866 22.625600 23.804800 10.801900
 136 1 4 -0.2514 23.167900 22.837900 13.156900
 137 1 4 -0.2514 19.368900 19.962400 12.258800
 138 1 2 0.0896 21.351400 21.051400 13.746400
 139 1 6 0.1829 19.142400 19.279300 11.574500
 140 1 6 0.1829 23.957200 23.213900 12.589300
 141 1 1 -0.0632 50.216064 37.657500 51.774434
 142 1 1 -0.0801 50.269174 36.441000 52.449494
 143 1 1 -0.0632 49.221944 36.131200 53.390814
 144 1 1 0.0078 49.106694 38.525200 51.992554
 145 1 1 -0.043 48.030974 38.129400 52.758014
 146 1 1 0.0078 48.086004 36.901300 53.364214
 147 1 2 0.0866 51.030634 38.056300 51.184934
 148 1 2 0.0839 51.158874 35.883000 52.502154
 149 1 2 0.0866 49.305794 35.281700 54.076814
 150 1 4 -0.2514 47.047964 36.509900 54.185714
 151 1 4 -0.2514 49.169134 39.814000 51.372874
 152 1 2 0.0896 47.150454 38.661300 52.908814
 153 1 6 0.1829 48.489294 40.065600 50.672974
 154 1 6 0.1829 47.243144 35.775900 54.927914
 155 1 1 -0.0632 47.662734 52.633614 30.310000
 156 1 1 -0.0801 48.655924 51.653104 30.201500
 157 1 1 -0.0632 49.864314 51.802014 30.935400
 158 1 1 0.0078 47.872014 11.262600 31.081600
 159 1 1 -0.043 49.043154 11.407200 31.817900
 160 1 1 0.0078 49.975234 52.883514 31.826000
 161 1 2 0.0866 46.798614 52.446094 29.741000
 162 1 2 0.0839 48.553694 50.718424 29.692500
 163 1 2 0.0866 50.486994 50.910034 30.855900
 164 1 11 -0.2514 51.040554 53.013014 32.730800
 165 1 11 -0.2514 46.810334 12.219000 31.108800
 166 1 2 0.0896 49.156154 12.289300 32.399800
 167 1 6 0.1829 46.345534 12.401100 30.214800
 168 1 6 0.1829 50.902014 53.711614 33.423000
 169 1 1 -0.0632 37.149854 17.930000 15.791700
 170 1 1 -0.0801 37.247054 17.067200 14.663300
 171 1 1 -0.0632 38.413374 16.341800 14.416900
 172 1 1 0.0078 38.156414 18.085700 16.700400
 173 1 1 -0.043 39.253154 17.244900 16.517300
 174 1 1 0.0078 39.448934 16.517900 15.319000
 175 1 2 0.0866 36.253144 18.459500 15.952000
 176 1 2 0.0839 36.528784 17.031700 13.885300
 177 1 2 0.0866 38.481704 15.728900 13.543100
 178 1 11 -0.2514 40.750694 16.271000 14.948200
 179 1 11 -0.2514 38.044284 19.020500 17.819500
 180 1 2 0.0896 40.059464 17.214800 17.203700
 181 1 6 0.1829 37.170174 19.045000 18.319300
 182 1 6 0.1829 41.377054 16.120500 15.724300
 183 1 1 -0.0632 46.028494 43.843294 43.318400
 184 1 1 -0.0801 46.005554 44.399254 44.587900
 185 1 1 -0.0632 46.078064 43.612144 45.751800
 186 1 1 0.0078 46.065474 42.414675 43.186400
 187 1 1 -0.043 46.059934 41.618868 44.286100
 188 1 1 0.0078 46.116614 42.203798 45.622000
 189 1 2 0.0866 46.017484 44.486084 42.449300
 190 1 2 0.0839 45.912544 45.458184 44.686300
 191 1 2 0.0866 46.131654 44.100414 46.685800
 192 1 11 -0.2514 46.178254 41.359484 46.779500
 193 1 11 -0.2514 46.187624 41.745725 41.955500
 194 1 2 0.0896 46.401244 40.591394 44.184200
 195 1 6 0.1829 46.869864 41.015264 41.931200
 196 1 6 0.1829 45.440414 40.661064 46.770400
 197 1 1 -0.0632 28.796200 13.903900 41.333000
 198 1 1 -0.0801 28.875800 14.369300 42.637700
 199 1 1 -0.0632 28.759500 13.496500 43.755600
 200 1 1 0.0078 28.581100 12.524300 41.062400
 201 1 1 -0.043 28.571600 11.632400 42.176600
 202 1 1 0.0078 28.605100 12.105600 43.515000
 203 1 2 0.0866 29.175200 14.489700 40.490400
 204 1 2 0.0839 29.048500 15.413100 42.903300
 205 1 2 0.0866 28.822900 13.833200 44.792500
 206 1 11 -0.2514 28.401400 11.284000 44.678300
 207 1 11 -0.2514 28.339700 11.957400 39.804800
 208 1 2 0.0896 28.568100 53.120814 42.010200
 209 1 6 0.1829 27.404100 11.739900 39.469400
 210 1 6 0.1829 28.932800 11.645800 45.419500
 211 1 1 -0.0632 35.192124 36.772400 20.948286
 212 1 1 -0.0801 35.700524 37.276200 22.133786
 213 1 1 -0.0632 36.165354 36.410200 23.181886
 214 1 1 0.0078 35.260514 35.343300 20.701186
 215 1 1 -0.043 35.902284 34.579400 21.665986
 216 1 1 0.0078 36.303484 35.033900 22.924186
 217 1 2 0.0866 34.709084 37.425000 20.246786
 218 1 2 0.0839 35.844394 38.334900 22.265486
 219 1 2 0.0866 36.466934 36.909800 24.181986
 220 1 11 -0.2514 37.004454 34.175000 23.778386
 221 1 11 -0.2514 34.691200 34.839700 19.511700
 222 1 2 0.0896 36.062794 33.538900 21.429786
 223 1 6 0.1829 33.769100 35.198500 19.316500
 224 1 6 0.1829 37.511914 33.369800 23.332386
 225 1 1 -0.0632 23.391800 39.424500 41.702400
 226 1 1 -0.0801 23.247000 40.198500 40.533294
 227 1 1 -0.0632 23.004886 39.577600 39.239100
 228 1 1 0.0078 23.163100 38.026300 41.630759
 229 1 1 -0.043 22.808600 37.404800 40.379874
 230 1 1 0.0078 22.794486 38.148700 39.180200
 231 1 2 0.0866 23.570900 39.882300 42.638186
 232 1 2 0.0839 23.448400 41.248500 40.614754
 233 1 2 0.0866 22.942686 40.202200 38.413600
 234 1 11 -0.2514 22.323086 37.669600 37.944400
 235 1 11 -0.2514 23.358400 37.215300 42.784792
 236 1 2 0.0896 22.571400 36.346500 40.316564
 237 1 6 0.1829 23.922600 37.615000 43.523924
 238 1 6 0.1829 21.515086 38.186500 37.579500
 239 1 1 -0.0632 32.316100 50.300914 44.199800
 240 1 1 -0.0801 31.316600 50.815654 45.024500
 241 1 1 -0.0632 30.952500 50.115744 46.154500
 242 1 1 0.0078 32.963700 49.050964 44.452500
 243 1 1 -0.043 32.519200 48.324894 45.590200
 244 1 1 0.0078 31.648700 48.938644 46.488100
 245 1 2 0.0866 32.607900 50.956884 43.459200
 246 1 2 0.0839 30.836900 51.728504 44.740900
 247 1 2 0.0866 30.199100 50.492354 46.837800
 248 1 11 -0.2514 31.246700 48.328344 47.692100
 249 1 11 -0.2514 34.042900 48.642884 43.627600
 250 1 2 0.0896 33.064500 47.373424 45.785200
 251 1 6 0.1829 34.706400 49.392054 43.371900
 252 1 6 0.1829 31.252000 48.990564 48.432600
 253 1 1 -0.0632 18.311900 51.578934 28.970700
 254 1 1 -0.0801 18.387000 50.215264 28.661000
 255 1 1 -0.0632 17.374300 49.381104 29.128300
 256 1 1 0.0078 17.130400 52.135694 29.465600
 257 1 1 -0.043 16.132900 51.281614 29.921400
 258 1 1 0.0078 16.261900 49.923484 29.840200
 259 1 2 0.0866 19.218400 52.136884 28.655700
 260 1 2 0.0839 19.153800 49.745634 28.031300
 261 1 2 0.0866 17.475900 48.307884 28.961000
 262 1 11 -0.2514 15.290100 49.081854 30.282300
 263 1 11 -0.2514 16.821900 53.511114 29.540900
 264 1 2 0.0896 15.184200 51.753984 30.114900
 265 1 6 0.1829 15.797300 53.624714 29.502000
 266 1 6 0.1829 15.408600 48.140774 29.952600
 267 1 1 -0.0645 26.477900 23.159200 52.345600
 268 1 1 -0.0801 25.928200 24.085300 53.315700
 269 1 1 -0.0632 25.063100 25.056500 52.832100
 270 1 1 -0.0091 26.038300 23.135300 51.016800
 271 1 1 -0.0444 25.050000 24.011000 50.594400
 272 1 1 0.0077 24.622900 25.066400 51.491700
 273 1 2 0.0866 27.166700 22.385600 52.769000
 274 1 2 0.0839 26.275000 24.112400 54.378700
 275 1 2 0.0866 24.700600 25.833500 53.542300
 276 1 4 -0.2514 23.768400 26.138300 51.057700
 277 1 8 -0.3506 26.417700 22.149200 50.111100
 278 1 2 0.0896 24.685600 23.934000 49.568700
 279 1 6 0.157 27.285400 21.612400 50.286800
 280 1 6 0.1829 23.837500 27.037600 51.577900
 281 1 1 -0.0632 18.543600 11.637286 18.952000
 282 1 1 -0.0801 18.969200 53.008000 18.237200
 283 1 1 -0.0632 18.454500 51.730500 18.593700
 284 1 1 0.0078 17.610700 11.543086 20.061600
 285 1 1 -0.043 16.947300 52.826900 20.290900
 286 1 1 0.0078 17.474500 51.659500 19.622900
 287 1 2 0.0866 19.062300 12.583686 18.775400
 288 1 2 0.0839 19.732000 53.141700 17.420400
 289 1 2 0.0866 18.828100 50.787800 18.281700
 290 1 11 -0.2514 17.145400 50.335800 20.051000
 291 1 11 -0.2514 17.257000 12.734586 20.778000
 292 1 2 0.0896 16.190300 52.777200 21.086500
 293 1 6 0.1829 18.078000 13.307186 20.816100
 294 1 6 0.1829 16.213100 50.055400 19.915700
 295 1 1 -0.0632 32.262600 23.862900 45.995464
 296 1 1 -0.0801 31.771400 24.278400 44.808714
 297 1 1 -0.0632 31.547600 25.629000 44.520094
 298 1 1 0.0078 32.758700 24.838200 46.898294
 299 1 1 -0.043 32.607700 26.198200 46.671824
 300 1 1 0.0078 32.004000 26.626100 45.428234
 301 1 2 0.0866 32.373900 22.803100 46.165194
 302 1 2 0.0839 31.340700 23.653200 44.079414
 303 1 2 0.0866 30.894600 25.907800 43.690644
 304 1 11 -0.2514 31.678000 27.978800 45.248724
 305 1 11 -0.2514 33.286600 24.432400 48.108764
 306 1 2 0.0896 33.091500 26.975100 47.280284
 307 1 6 0.1829 34.282600 24.480000 48.270954
 308 1 6 0.1829 31.089700 28.368100 45.974184
 309 1 1 -0.0632 42.456628 51.298894 29.639300
 310 1 1 -0.0801 42.867123 51.207014 31.020200
 311 1 1 -0.0632 42.357171 50.262184 31.873300
 312 1 1 0.0078 41.550648 50.351094 29.181800
 313 1 1 -0.043 40.871304 49.520014 30.096500
 314 1 1 0.0078 41.293974 49.477824 31.441900
 315 1 2 0.0866 42.874449 51.974444 28.880300
 316 1 2 0.0839 43.658414 51.874914 31.325700
 317 1 2 0.0866 42.634528 50.236904 32.936800
 318 1 11 -0.2514 40.639004 48.582914 32.367300
 319 1 11 -0.2514 41.087804 50.305624 27.811000
 320 1 2 0.0896 39.961934 48.952184 29.702900
 321 1 6 0.1829 40.617654 51.081114 27.404500
 322 1 6 0.1829 40.725944 48.876984 33.324800
 323 1 1 -0.0632 53.470514 22.842000 35.245900
 324 1 1 -0.0801 11.960400 23.220100 34.264400
 325 1 1 -0.0632 13.288800 23.297000 34.691900
 326 1 1 0.0078 11.260700 22.331300 36.485100
 327 1 1 -0.043 12.603200 22.311200 36.843900
 328 1 1 0.0078 13.607900 22.865300 35.970000
 329 1 2 0.0866 52.443684 22.869800 34.880400
 330 1 2 0.0839 11.659400 23.589200 33.299200
 331 1 2 0.0866 14.032400 23.702800 34.069100
 332 1 11 -0.2514 14.970700 22.874700 36.350100
 333 1 11 -0.2514 52.747914 22.030000 37.388700
 334 1 2 0.0896 12.779700 21.979400 37.838600
 335 1 6 0.1829 53.034314 22.080800 38.315700
 336 1 6 0.1829 15.378600 21.931900 36.167000
 337 1 1 -0.0632 47.074644 29.309400 47.730400
 338 1 1 -0.0801 46.122474 29.677200 48.702500
 339 1 1 -0.0632 46.459524 29.678500 50.097200
 340 1 1 0.0078 48.354324 28.962000 48.116600
 341 1 1 -0.043 48.692684 29.000800 49.502500
 342 1 1 0.0078 47.743654 29.381600 50.433400
 343 1 2 0.0866 46.771874 29.279500 46.680400
 344 1 2 0.0839 45.174324 29.962900 48.426800
 345 1 2 0.0866 45.743364 30.040600 50.836600
 346 1 4 -0.2514 48.046054 29.639400 51.774700
 347 1 11 -0.2514 49.320334 28.523500 47.202900
 348 1 2 0.0896 49.705264 28.705700 49.869500
 349 1 6 0.1829 50.249804 28.891900 47.224800
 350 1 6 0.1829 47.616774 30.458500 52.139400
 351 1 1 -0.0632 45.256000 33.182400 52.107600
 352 1 1 -0.0801 44.087600 32.885200 52.737000
 353 1 1 -0.0632 42.955400 32.502900 52.020700
 354 1 1 0.0078 45.354700 33.130000 50.698200
 355 1 1 -0.043 44.171800 32.910300 49.975400
 356 1 1 0.0078 42.972500 32.667500 50.673900
 357 1 2 0.0866 46.125200 33.380300 52.739800
 358 1 2 0.0839 44.172800 32.951800 53.864400
 359 1 2 0.0866 42.026400 32.342700 52.581400
 360 1 4 -0.2514 41.744200 32.539800 49.972000
 361 1 11 -0.2514 46.639900 33.428000 50.056500
 362 1 2 0.0896 44.159500 32.941700 48.896200
 363 1 6 0.1829 46.564300 33.735300 49.084200
 364 1 6 0.1829 41.662100 31.921600 49.229100
 365 1 1 -0.0632 32.328900 50.330000 49.990100
 366 1 1 -0.0801 32.598200 49.239700 50.795600
 367 1 1 -0.0632 31.953600 49.175400 52.053700
 368 1 1 0.0078 31.379100 51.361900 50.368400
 369 1 1 -0.043 30.956100 51.456400 51.682300
 370 1 1 0.0078 31.301400 50.366100 52.567700
 371 1 2 0.0866 32.684700 50.435900 48.949100
 372 1 2 0.0839 33.221500 48.456300 50.526800
 373 1 2 0.0866 32.190100 48.330000 52.696500
 374 1 4 -0.2514 30.850700 50.475700 53.886600
 375 1 11 -0.2514 30.622014 52.146554 49.373744
 376 1 2 0.0896 30.377700 52.302700 52.040700
 377 1 6 0.1829 29.762814 51.724424 49.139374
 378 1 6 0.1829 30.046600 51.086500 54.104400
 379 1 1 -0.0632 31.332200 32.158800 33.579700
 380 1 1 -0.0801 30.841400 33.311900 32.987200
 381 1 1 -0.0632 30.669600 33.397600 31.580100
 382 1 1 0.0078 31.755200 31.052400 32.776200
 383 1 1 -0.043 31.658300 31.203900 31.384700
 384 1 1 0.0078 31.185100 32.367500 30.761300
 385 1 2 0.0866 31.504400 32.203600 34.669500
 386 1 2 0.0839 30.636200 34.212000 33.561500
 387 1 2 0.0866 30.279700 34.321000 31.144300
 388 1 11 -0.2514 31.011100 32.336300 29.323700
 389 1 11 -0.2514 31.954900 29.771200 33.302100
 390 1 2 0.0896 31.825900 30.320000 30.719400
 391 1 6 0.1829 31.332600 29.524400 34.053400
 392 1 6 0.1829 30.936500 31.365900 28.886700
 393 1 1 -0.0632 23.467500 33.194600 51.792900
 394 1 1 -0.0801 24.027200 34.335500 52.364800
 395 1 1 -0.0632 25.421900 34.551400 52.324400
 396 1 1 0.0078 24.219800 32.329900 51.029800
 397 1 1 -0.043 25.578200 32.661800 50.756600
 398 1 1 0.0078 26.200100 33.761600 51.405700
 399 1 2 0.0866 22.413000 33.005800 51.779200
 400 1 2 0.0839 23.470900 35.091800 52.910100
 401 1 2 0.0866 25.930400 35.449500 52.838600
 402 1 4 -0.2514 27.540400 34.050400 51.221300
 403 1 11 -0.2514 23.636700 31.167100 50.518400
 404 1 2 0.0896 26.202200 31.965100 50.125400
 405 1 6 0.1829 24.303900 30.406700 50.544100
 406 1 6 0.1829 27.812000 34.991800 51.428000
 407 1 1 -0.0632 36.236684 47.661200 47.693804
 408 1 1 -0.0801 36.033384 48.404700 48.883064
 409 1 1 -0.0632 36.196254 47.731100 50.189514
 410 1 1 0.0078 36.472244 46.279500 47.824094
 411 1 1 -0.043 36.677164 45.629000 49.065324
 412 1 1 0.0078 36.470324 46.314400 50.218344
 413 1 2 0.0866 36.134084 48.107900 46.674994
 414 1 2 0.0839 35.666594 49.446700 48.874094
 415 1 2 0.0866 36.210604 48.282400 51.092814
 416 1 4 -0.2514 36.877564 45.769500 51.511044
 417 1 11 -0.2514 36.731334 45.412000 46.698854
 418 1 2 0.0896 36.949994 44.612900 49.023974
 419 1 6 0.1829 36.235844 44.570100 46.886474
 420 1 6 0.1829 37.709884 45.174300 51.458634
 421 1 1 -0.0632 49.988844 38.348400 31.829800
 422 1 1 -0.0801 51.373644 38.358200 31.770100
 423 1 1 -0.0632 52.153694 37.406300 31.056700
 424 1 1 0.0078 49.322184 37.345100 31.056900
 425 1 1 -0.043 50.101744 36.389000 30.323900
 426 1 1 0.0078 51.460764 36.407200 30.377100
 427 1 2 0.0866 49.483824 39.046500 32.419500
 428 1 2 0.0839 51.910594 39.153100 32.317800
 429 1 2 0.0866 53.233414 37.458300 31.040000
 430 1 11 -0.2514 52.209694 35.388100 29.789200
 431 1 11 -0.2514 47.934264 37.286400 31.025900
 432 1 2 0.0896 49.624954 35.609400 29.751400
 433 1 6 0.1829 47.557594 37.115900 31.967400
 434 1 6 0.1829 51.945594 34.484800 29.985400
 435 1 1 -0.0632 13.139300 49.387824 27.465100
 436 1 1 -0.0801 14.365700 48.786874 27.306800
 437 1 1 -0.0632 14.391000 47.375834 27.188600
 438 1 1 0.0078 11.936500 48.629304 27.315300
 439 1 1 -0.043 11.964200 47.254014 27.216600
 440 1 1 0.0078 13.203000 46.600674 27.076200
 441 1 2 0.0866 13.068800 50.459234 27.674800
 442 1 2 0.0839 15.279800 49.299484 27.267800
 443 1 2 0.0866 15.297300 46.805914 26.987500
 444 1 11 -0.2514 13.046800 45.256694 26.712500
 445 1 11 -0.2514 53.206014 49.375354 27.201500
 446 1 2 0.0896 53.516914 46.755554 27.126500
 447 1 6 0.1829 53.272714 50.258894 26.732500
 448 1 6 0.1829 12.057800 45.003934 26.543200
 449 1 1 -0.0632 33.237314 27.815400 52.439744
 450 1 1 -0.0801 34.006714 26.659300 52.241064
 451 1 1 -0.0632 35.399334 26.791000 52.002104
 452 1 1 0.0078 33.845034 29.119300 52.395784
 453 1 1 -0.043 35.244534 29.248600 52.143784
 454 1 1 0.0078 35.967124 28.089300 51.908444
 455 1 2 0.0866 32.173514 27.679900 52.559514
 456 1 2 0.0839 33.499014 25.685200 52.316154
 457 1 2 0.0866 36.012394 25.934600 51.856334
 458 1 11 -0.2514 37.384664 28.254800 51.765774
 459 1 4 -0.2514 33.128424 30.326000 52.699214
 460 1 2 0.0896 35.729024 30.212300 52.194744
 461 1 6 0.1829 33.375874 31.132600 52.167324
 462 1 6 0.1829 37.859594 28.783000 52.490274
 463 1 1 -0.0632 49.926934 14.936100 47.589300
 464 1 1 -0.0801 48.618124 15.367300 47.378400
 465 1 1 -0.0632 47.522294 14.627300 47.830700
 466 1 1 0.0078 50.140764 13.664700 48.151100
 467 1 1 -0.043 49.078914 12.844800 48.456000
 468 1 1 0.0078 47.784474 13.366900 48.361500
 469 1 2 0.0866 50.802314 15.541800 47.330900
 470 1 2 0.0839 48.469614 16.307800 46.978600
 471 1 2 0.0866 46.490134 14.992000 47.729300
 472 1 11 -0.2514 46.637544 12.708300 48.814100
 473 1 11 -0.2514 51.488214 13.270086 48.428100
 474 1 2 0.0896 49.269494 11.861100 48.844000
 475 1 6 0.1829 52.110234 13.806186 47.890000
 476 1 6 0.1829 46.108424 12.159500 48.146700
 477 1 1 -0.0632 51.705364 25.576200 52.133400
 478 1 1 -0.0801 50.813334 25.452600 51.108600
 479 1 1 -0.0632 50.203734 24.201400 50.961600
 480 1 1 0.0078 51.812344 24.618500 53.151500
 481 1 1 -0.043 51.259084 23.379200 52.964100
 482 1 1 0.0078 50.385564 23.190700 51.868600
 483 1 2 0.0866 52.159594 26.538500 52.211300
 484 1 2 0.0839 50.586454 26.222800 50.346100
 485 1 2 0.0866 49.436374 24.028200 50.123000
 486 1 11 -0.2514 49.676474 21.951100 51.824000
 487 1 4 -0.2514 52.280474 24.814900 54.492400
 488 1 2 0.0896 51.262854 22.601700 53.739700
 489 1 6 0.1829 51.837644 24.312600 55.296300
 490 1 6 0.1829 50.297314 21.129000 51.872200
 491 1 1 -0.0632 16.543200 31.298014 34.613000
 492 1 1 -0.0801 15.723100 32.341814 35.053800
 493 1 1 -0.0632 16.181700 33.546264 35.561700
 494 1 1 0.0078 17.920600 31.429114 34.980100
 495 1 1 -0.043 18.404800 32.638494 35.689500
 496 1 1 0.0078 17.569900 33.754184 35.826500
 497 1 2 0.0866 16.161300 30.424914 34.028100
 498 1 2 0.0839 14.646400 32.287614 34.900900
 499 1 2 0.0866 15.474300 34.270674 36.021100
 500 1 11 -0.2514 17.891600 34.893914 36.586100
 501 1 11 -0.2514 18.718500 30.289814 34.535500
 502 1 2 0.0896 19.461800 32.687774 35.991500
 503 1 6 0.1829 19.373900 30.517514 33.773700
 504 1 6 0.1829 18.620100 34.868524 37.276200
 505 1 1 -0.0632 22.123700 19.182400 17.275100
 506 1 1 -0.0801 21.714400 19.097800 18.612100
 507 1 1 -0.0632 22.475100 19.588400 19.677700
 508 1 1 0.0078 23.299800 19.845800 16.986100
 509 1 1 -0.043 24.016800 20.449900 18.089900
 510 1 1 0.0078 23.598800 20.331800 19.397200
 511 1 2 0.0866 21.484800 18.678900 16.453900
 512 1 2 0.0839 20.776200 18.588800 18.859100
 513 1 2 0.0866 22.181100 19.491800 20.709500
 514 1 11 -0.2514 24.235300 21.088400 20.401900
 515 1 4 -0.2514 23.805200 19.795900 15.652800
 516 1 2 0.0896 24.908900 21.034700 17.907100
 517 1 6 0.1829 23.056700 19.974600 14.990700
 518 1 6 0.1829 24.401500 22.068700 20.213100
 519 1 1 -0.0632 45.023900 38.193500 49.344800
 520 1 1 -0.0801 45.579400 36.942100 49.132400
 521 1 1 -0.0632 45.589200 36.424000 47.793100
 522 1 1 0.0078 44.354100 38.869300 48.324900
 523 1 1 -0.043 44.537100 38.439500 46.999300