LAMMPS data file via write_data, version 29 Oct 2020, timestep = 168

7840 atoms
16 atom types
7773 bonds
19 bond types
11445 angles
24 angle types
19495 dihedrals
42 dihedral types

11.246593 53.753407 xlo xhi
11.246593 53.753407 ylo yhi
-2.5 67.5 zlo zhi

Masses

1 12.01
2 1.008
3 12.01
4 16
5 14.01
6 1.008
7 16
8 14.01
9 1.008
10 12.01
11 14.01
12 12.01
13 1.008
14 16
15 15.9994
16 1.008

Pair Coeffs # lj/cut/coul/long/omp

1 0.086 3.39967
2 0.015 2.59964
3 0.086 3.39967
4 0.21 2.95992
5 0.17 3.25
6 0.0157 1.06908
7 0.2104 3.06647
8 0.17 3.25
9 0 0
10 0.086 3.39967
11 0.17 3.25
12 0.086 3.39967
13 0.0157 1.06908
14 0.2104 3.06647
15 0.102 3.188
16 0 0

Atoms # full

6984 216 16 0.415 16.775554154437046 18.730868615979286 6.0616886667776 0 0 0
6985 216 16 0.415 16.745218057837313 18.711842193937425 6.025930192885933 0 0 0
6986 217 15 -0.83 11.317759429179414 13.607222899789662 -1.9721821788858267 0 0 0
6987 217 16 0.415 12.171550328742264 13.205415083044711 -1.785911962293818 0 0 0
6988 217 16 0.415 12.17235486772684 13.20188726262203 -1.7900723098347218 0 0 0
7013 226 15 -0.83 14.218546063425462 14.443831780328395 2.1872050491488215 0 0 0
7014 226 16 0.415 14.056564169921337 13.537361338280226 1.9143193102650422 0 0 0
7015 226 16 0.415 14.060785964203486 13.536440578912394 1.9086116826424186 0 0 0
7058 241 15 -0.83 16.777582321088826 12.473425359951403 0.893927246719378 0 0 0
7059 241 16 0.415 16.849831344584956 12.660489916070865 -0.04580405440219744 0 0 0
7060 241 16 0.415 16.849738783115818 12.667885142143438 -0.046236997979134865 0 0 0
7181 282 15 -0.83 15.218629523615421 19.81832130662191 5.546918542783098 0 0 0
7182 282 16 0.415 14.390795921732888 20.158507284675256 5.1719433198833205 0 0 0
7183 282 16 0.415 14.391219207789893 20.15586245777496 5.162261151990176 0 0 0
7253 306 15 -0.83 11.98764677111488 16.9003083799841 1.3398397025112658 0 0 0
7254 306 16 0.415 12.320411182053927 17.02725659717948 2.2471901309286393 0 0 0
7255 306 16 0.415 12.327331247610184 17.02250354087759 2.2475803789466933 0 0 0
7292 319 15 -0.83 12.835764674936886 19.98186931594739 1.741525691253687 0 0 0
7293 319 16 0.415 13.154783990280974 20.173194918637524 0.854665050341675 0 0 0
7294 319 16 0.415 13.153580249615445 20.178468556029603 0.8538839263916095 0 0 0
6959 208 15 -0.83 18.503205302038236 20.594000889303928 0.5734473255677336 0 0 0
6960 208 16 0.415 18.459110026715827 21.315767407490608 -0.05508315299560958 0 0 0
6961 208 16 0.415 18.46501721438907 21.31623096833157 -0.05739578737204206 0 0 0
6980 215 15 -0.83 22.01863979955801 16.034042234202033 2.3109867814149263 0 0 0
6981 215 16 0.415 21.316290813401498 16.641986130699234 2.063988075488044 0 0 0
6982 215 16 0.415 21.314813519369622 16.640410570793534 2.059107102099924 0 0 0
7226 297 15 -0.83 24.912403611303997 13.82565394690799 5.5806412858504295 0 0 0
7227 297 16 0.415 24.270814974940507 13.613928954323661 4.897764820803743 0 0 0
7228 297 16 0.415 24.273948813245852 13.610953173089992 4.893635193633911 0 0 0
6947 204 15 -0.83 30.95015701680183 21.456449795926 4.955063066439574 0 0 0
6948 204 16 0.415 31.669653765820108 21.54383569016009 5.579432857846325 0 0 0
6949 204 16 0.415 31.666734915622882 21.54752515224322 5.585113224596239 0 0 0
6962 209 15 -0.83 27.520411831643678 11.579271888636416 3.315767494064899 0 0 0
6963 209 16 0.415 28.180568994329036 12.165532729501269 2.9410457609543728 0 0 0
6964 209 16 0.415 28.180963650572142 12.163805700968965 2.9349916448223765 0 0 0
7145 270 15 -0.83 30.81818763638085 14.911475997852808 -0.1288449224000756 0 0 0
7146 270 16 0.415 30.79807091993732 15.901155975680187 -0.030512651257618446 0 0 0
7147 270 16 0.415 30.792730538970943 15.902687712392565 -0.032255240836032616 0 0 0
7220 295 15 -0.83 26.324632853884925 13.416071718796296 -1.2844743560278784 0 0 0
7221 295 16 0.415 25.657942463265602 14.054307618231713 -1.0293644687364778 0 0 0
7222 295 16 0.415 25.65631008608842 14.0526378837057 -1.0236082002690639 0 0 0
7247 304 15 -0.83 27.535443934346013 16.68324873090348 5.970690842341081 0 0 0
7248 304 16 0.415 26.778731475530908 16.563300152514493 5.392187489275266 0 0 0
7249 304 16 0.415 26.773601060652723 16.563120560864583 5.39621992926822 0 0 0
7250 305 15 -0.83 27.319346342765744 21.32629903939232 -1.8411129528693824 0 0 0
7307 324 15 -0.83 30.637280595227192 17.341249627090825 0.2805879133396393 0 0 0
7308 324 16 0.415 30.490378523237386 18.277466662216387 0.5159105608111045 0 0 0
7309 324 16 0.415 30.48691253465462 18.277267723667556 0.5206465102205826 0 0 0
2214 1 1 0.0 16.076811197117713 13.882631391644544 14.908534052400466 0 0 0
2215 1 1 0.0 15.431945373366123 15.016967134058785 14.395901343936677 0 0 0
2218 1 1 0.0 16.023177803483232 16.27760466506983 14.556177867236235 0 0 0
2220 1 2 0.0 15.64474259591418 12.902308858625423 14.746854127631211 0 0 0
2221 1 2 0.0 14.529199160856077 14.909419596613427 13.802110879354744 0 0 0
2222 1 4 0.0 15.653381406014773 17.32013310913644 13.691942592466214 0 0 0
2226 1 6 0.0 16.268453567595177 18.122547379097117 13.659744932385022 0 0 0
4275 1 1 0.0 12.946095751549358 20.637742710373125 10.879553742671812 0 0 0
4276 1 1 0.0 12.041315907931912 19.572560558964064 11.053401715181945 0 0 0
4277 1 1 0.0 12.180476545821307 18.718485454510848 12.169275126040787 0 0 0
4278 1 1 0.0 14.000522699733665 20.822194202469298 11.78178913205408 0 0 0
4279 1 1 0.0 14.14946220995615 19.92705078413739 12.843750882163057 0 0 0
4280 1 1 0.0 13.189720706277141 18.947728136056938 13.118251258935677 0 0 0
4281 1 2 0.0 12.802846696235735 21.354736812089055 10.076677613596766 0 0 0
4282 1 2 0.0 11.468832192113974 17.916513471610273 12.331840444596226 0 0 0
4283 1 2 0.0 14.961752791140716 20.05815249498443 13.506896086023517 0 0 0
4285 1 3 -0.5 13.174689833112017 18.279850412124766 14.46553162417412 0 0 0
4289 1 4 0.0 12.619494983035144 17.217480104875378 14.675789911839733 0 0 0
5186 1 12 0.0 17.455009033478408 20.084068102712408 14.22152516592176 0 0 0
5190 1 4 0.0 17.944809994310642 19.008779599691014 13.875402961248145 0 0 0
5386 1 1 0.0 12.443609744555541 12.366019295316159 14.551953991786975 0 0 0
5389 1 1 0.0 11.818283439832214 13.638326665645932 14.740536320672934 0 0 0
5392 1 2 0.0 12.48984138089701 11.961018066906663 13.538639971018448 0 0 0
5395 1 3 -0.5 11.283003017612153 14.409726679182942 13.584334001123512 0 0 0
6787 125 9 0.0 18.026877138656925 13.118423819528221 12.237196933120991 0 0 0
6788 125 14 0.5 17.806246435764223 14.017683425956855 11.916073179274488 0 0 0
6983 216 15 -0.83 17.241965097947077 17.96279520542942 6.413789526056163 0 0 0
7112 259 15 -0.83 12.38322010864465 14.734189236114016 6.65057065538811 0 0 0
7113 259 16 0.415 12.6669508529416 15.170070726421802 7.453143212772957 0 0 0
7114 259 16 0.415 12.663066253577522 15.167236853891833 7.458123512675539 0 0 0
127 1 1 0.0 20.175948340449143 21.439363664816256 10.386765273835026 0 0 0
130 1 1 0.0 20.446545435785563 20.820142947531174 11.616550449613142 0 0 0
131 1 1 0.0 21.418687584321212 21.35303817390871 12.476498723586001 0 0 0
133 1 2 0.0 19.440351733880632 21.012177693771548 9.712802262723917 0 0 0
137 1 4 0.0 19.92601320834765 19.536914183949264 11.873140108989356 0 0 0
138 1 2 0.0 21.637146509035766 20.854902100221643 13.417760093604059 0 0 0
139 1 6 0.0 19.120311903957976 19.265560026089716 11.325259071462783 0 0 0
1401 1 1 0.0 21.282436633129226 14.915973429975407 12.78622986336649 0 0 0
1402 1 1 0.0 21.177818379652333 16.21491242985316 13.307384135421247 0 0 0
1403 1 1 0.0 22.12282380439791 16.675349614942924 14.238962032812967 0 0 0
1404 1 1 0.0 22.343942933523987 14.085365987252828 13.181884447988617 0 0 0
1405 1 1 0.0 23.25639455138901 14.526188787851249 14.157620108056115 0 0 0
1406 1 1 0.0 23.139032131454854 15.817579533528827 14.706473515891325 0 0 0
1407 1 2 0.0 20.56919388716559 14.571861642791003 12.042659916013152 0 0 0
1408 1 2 0.0 20.374498039504516 16.868032916226074 12.978800439244367 0 0 0
1409 1 2 0.0 22.048577203170712 17.689969370192866 14.61550556524797 0 0 0
1411 1 4 0.0 22.532702644909513 12.8384307590718 12.545642991254924 0 0 0
1412 1 2 0.0 24.07682649692128 13.879020712191586 14.455908776450178 0 0 0
1413 1 6 0.0 23.489875384944533 12.510914625381846 12.4923515435422 0 0 0
4159 1 1 0.0 24.95810076410925 19.46575235803338 11.395552564730048 0 0 0
4160 1 1 0.0 24.70693394238013 19.593725965641717 12.781583494501959 0 0 0
4164 1 2 0.0 23.684299642641545 19.543600338005216 13.145664542836895 0 0 0
4165 1 3 -0.5 23.874758398180735 19.14889052649083 10.410449406099906 0 0 0
4169 1 4 0.0 22.730230410714295 18.844977047166065 10.693162816859598 0 0 0
5181 1 1 0.0 18.490959108803768 21.09885597026759 14.491167168336876 0 0 0
1164 1 1 0.0 32.259899963431124 17.868643035324894 12.29921467817407 0 0 0
1165 1 1 0.0 32.18242474928621 17.085632629278322 11.134021897564361 0 0 0
1170 1 2 0.0 31.768798474039446 18.831282245857953 12.34614070140325 0 0 0
1171 1 2 0.0 31.63115367828844 17.45201133684795 10.27423117930751 0 0 0
4156 1 1 0.0 26.27939308900771 19.535972521213825 10.91566294457727 0 0 0
4157 1 1 0.0 27.35190217406073 19.72943265392834 11.805626986995923 0 0 0
4158 1 1 0.0 27.086485238633443 19.817888776422546 13.177485340745067 0 0 0
4161 1 1 0.0 25.794388006254053 19.709565394566575 13.680294544554958 0 0 0
4162 1 2 0.0 26.470864760184856 19.41042914845483 9.852789165857132 0 0 0
4163 1 2 0.0 27.89650126565797 19.907515818821402 13.891090711324726 0 0 0
4167 1 12 0.0 28.773870860486657 19.789438667501912 11.333118898587713 0 0 0
4168 1 4 0.0 29.127395589913792 19.489100429542663 10.207111443875574 0 0 0
4171 1 7 0.0 29.662767261775006 20.181524994483684 12.27580171567467 0 0 0
4172 1 9 0.0 29.14070634447925 20.33468314935188 13.08708184999738 0 0 0
4547 1 1 0.0 27.814049917035774 13.917957563284707 13.74791077051466 0 0 0
4548 1 1 0.0 28.105668240959698 12.82071268848175 12.91117359117738 0 0 0
4549 1 1 0.0 29.42104025300507 12.313532228133514 12.874669380564669 0 0 0
4550 1 1 0.0 28.811309286489728 14.496930462552866 14.556919426091799 0 0 0
4551 1 1 0.0 30.113432082281694 13.9496783394539 14.52015838107164 0 0 0
4552 1 1 0.0 30.430580884858387 12.848502506173347 13.69213797843107 0 0 0
4553 1 2 0.0 26.803507528515073 14.316669341968487 13.777943933861712 0 0 0
4554 1 2 0.0 29.659850261406422 11.465387372379173 12.241153497810954 0 0 0
4557 1 10 0.0 31.77281278847205 12.151386315292717 13.754495366386111 0 0 0
4558 1 12 0.0 27.010078272479838 12.18889059822868 12.092365992435267 0 0 0
4559 1 4 0.0 25.848558865552665 12.557088649215663 12.131340609642127 0 0 0
6931 197 9 0.0 29.739922696938425 16.85407542827805 13.104251128124034 0 0 0
6932 197 14 0.5 29.225901803910634 16.82140873523887 12.273854036082271 0 0 0
43 1 1 0.0 12.0199546867768 20.858762255580924 21.04346314098222 0 0 0
46 1 1 0.0 12.101658934376337 19.744810212122623 21.899926142770784 0 0 0
49 1 2 0.0 12.712886483689326 20.958117937861033 20.213485160371043 0 0 0
53 1 11 0.0 13.189878096861458 18.837144930550867 21.748012907724824 0 0 0
55 1 6 0.0 14.086654809362102 19.278977066051286 21.589834759219414 0 0 0
284 1 1 0.0 17.562923909252124 11.55749815987474 20.0258060138809 0 0 0
291 1 11 0.0 17.22098552344727 12.754357273208452 20.72521915180819 0 0 0
293 1 6 0.0 17.98489286129689 13.413555347117418 20.814212688407093 0 0 0
1050 1 6 0.0 13.623312650937681 12.470119822855285 23.502682885875984 0 0 0
2213 1 1 0.0 17.278220417490964 14.023986464370507 15.625497038000653 0 0 0
2216 1 1 0.0 17.78769214953871 15.303655739343288 15.889520182876186 0 0 0
2217 1 1 0.0 17.132355521369735 16.43443519538998 15.397852779129648 0 0 0
2219 1 2 0.0 17.807836636284197 13.151665070634687 15.99301611872542 0 0 0
2224 1 2 0.0 17.554570097427142 17.413043475786388 15.589497538508178 0 0 0
2451 1 1 0.0 13.849335055628645 16.912547536756012 18.36734611443664 0 0 0
2452 1 1 0.0 14.049528986128722 18.203570047609468 17.855254365098375 0 0 0
2453 1 1 0.0 12.958218301776983 18.944633604075015 17.37865735637416 0 0 0
2454 1 1 0.0 12.56925889304595 16.33024571275401 18.345326267360782 0 0 0
2455 1 1 0.0 11.488659311634068 17.06918357942127 17.848827419596358 0 0 0
2456 1 1 0.0 11.672732705026657 18.384970976641597 17.403365352881387 0 0 0
2457 1 2 0.0 14.686726168387393 16.382963536798112 18.808747088941082 0 0 0
2458 1 2 0.0 15.045118313526693 18.634844130829244 17.843375802063655 0 0 0
2459 1 2 0.0 13.11033629974736 19.93895980679994 16.970250036797594 0 0 0
2461 1 11 0.0 12.32077727584096 15.123164602270455 19.034880407157683 0 0 0
2463 1 6 0.0 12.43742850713566 15.188683657269811 20.037537912606954 0 0 0
2502 1 11 0.0 18.162194651095202 18.55448551675076 23.36618240211469 0 0 0
2504 1 2 0.0 16.777268858974235 20.82747081838428 23.462204466918905 0 0 0
5387 1 1 0.0 13.023723561924687 11.664599837216468 15.70343947946414 0 0 0
5388 1 1 0.0 12.80870172745642 12.253790672443333 16.927010717488844 0 0 0
5390 1 1 0.0 11.68340806458883 14.184262132653748 16.03219259609326 0 0 0
5391 1 1 0.0 12.172895075479769 13.477007361633657 17.13883444966167 0 0 0
5393 1 2 0.0 13.232387938760187 11.7140157073606 17.76094830735428 0 0 0
5396 1 10 0.0 12.002992821972688 13.858056589108141 18.5806463280707 0 0 0
5400 1 4 0.0 11.92226926743829 12.974418647371252 19.411787356386025 0 0 0
6315 1 4 0.0 18.27369849170088 15.176915970236376 18.69495853303107 0 0 0
6481 1 1 0.0 15.720001949538268 17.48416036012475 21.909824832349788 0 0 0
6482 1 1 0.0 14.529496844993103 16.753598842309298 21.724708463906754 0 0 0
6483 1 1 0.0 14.630352795950714 15.35719004667886 21.523999388263668 0 0 0
6484 1 1 0.0 16.969866061132574 16.839732743827344 21.99083720205111 0 0 0
6485 1 1 0.0 17.04591483839908 15.458436439615806 21.725379513484327 0 0 0
6486 1 1 0.0 15.882946890565497 14.702176702705925 21.45924937697543 0 0 0
6487 1 2 0.0 15.678305999225032 18.560115519829715 22.032211903133394 0 0 0
6488 1 2 0.0 13.72599962637716 14.77935096678109 21.371153251598418 0 0 0
6489 1 2 0.0 18.01990916376187 14.97841072961784 21.73694458004979 0 0 0
6490 1 10 0.0 18.223375916716364 17.602259241837096 22.351280423922024 0 0 0
6491 1 10 0.0 15.958549913688799 13.237823906135434 21.0591923726713 0 0 0
6492 1 10 0.0 13.177308914279196 17.445348640194425 21.762810219887953 0 0 0
6493 1 4 0.0 12.132475023910718 16.817517486948102 21.77914489582002 0 0 0
6495 1 4 0.0 14.950644306200493 12.570608406783006 20.89115638169835 0 0 0
6513 1 1 0.0 11.769837880756725 13.902821369523476 23.175468660996206 0 0 0
6518 1 2 0.0 12.266613444457345 13.091920796540375 22.656324407471363 0 0 0
6676 37 13 0.0 16.86868804110367 18.743353881706447 19.11649283749749 0 0 0
6777 120 9 0.0 15.225752369228216 13.561989781781785 18.290037487101593 0 0 0
6778 120 14 0.5 15.00472054063761 14.185258725606113 17.572688363479347 0 0 0
6801 132 9 0.0 15.844764388265322 20.20428318502601 19.41019343110576 0 0 0
6802 132 14 0.5 15.912244674665875 21.167141671427544 19.291715051869357 0 0 0
6935 1 9 0.0 16.142124670945982 19.80562534456107 15.945896814751439 0 0 0
6936 1 7 0.0 16.389314942198023 20.35357215949348 15.140950244554908 0 0 0
281 1 1 0.0 18.545830477407684 11.648694429633396 19.02209739281675 0 0 0
287 1 2 0.0 18.988790459666166 12.608217838316156 18.776702899818986 0 0 0
505 1 1 0.0 21.806952342012682 19.09646302704771 17.53264577870999 0 0 0
506 1 1 0.0 21.549485179906483 18.974196446171977 18.898814138406888 0 0 0
507 1 1 0.0 22.409895927675898 19.573234918390686 19.830033851399495 0 0 0
508 1 1 0.0 22.921396226395885 19.81539132494724 17.099056790453847 0 0 0
509 1 1 0.0 23.793171267431543 20.42929853780692 18.030688714960228 0 0 0
510 1 1 0.0 23.528821061017478 20.322288198702232 19.41506529113555 0 0 0
511 1 2 0.0 21.152612439852817 18.62730376631178 16.803551043615432 0 0 0
512 1 2 0.0 20.674823010304063 18.426653016611553 19.23128195128467 0 0 0
513 1 2 0.0 22.168742086611612 19.49582044472665 20.883857718327384 0 0 0
514 1 11 0.0 24.26850565919266 21.058851833162098 20.39402784162389 0 0 0
515 1 4 0.0 23.1280868934707 19.873040888135254 15.709418008922865 0 0 0
516 1 2 0.0 24.65133012412124 21.000214039666208 17.68368261121309 0 0 0
517 1 6 0.0 22.507407095482645 20.440290292928022 15.149703336623974 0 0 0
848 1 2 0.0 24.742443209297672 12.885936274921335 23.141924126790617 0 0 0
1373 1 1 0.0 20.07537674055564 21.292642556477034 21.054612910355132 0 0 0
1374 1 1 0.0 20.443389710140973 21.36448947809614 22.401713127819946 0 0 0
1379 1 2 0.0 19.55710073184969 20.40191411827213 20.72438727094317 0 0 0
1380 1 2 0.0 20.206544394923817 20.537636547586267 23.061179443309932 0 0 0
1410 1 11 0.0 24.113904068435726 16.29315477585262 15.624504904865328 0 0 0
1414 1 6 0.0 24.966475422436357 16.594686413058323 15.168682796211339 0 0 0
1487 1 1 0.0 22.48197425131669 12.334208050092137 20.478632897838114 0 0 0
1489 1 1 0.0 20.899914620002942 12.023483075541487 22.29748965466429 0 0 0
1490 1 1 0.0 21.86747561650075 12.817366146387018 21.650145559640137 0 0 0
1493 1 2 0.0 23.251746937573056 12.912024008758399 19.975459908522144 0 0 0
1494 1 11 0.0 22.301072798918888 14.026672158528058 22.260667039099708 0 0 0
1496 1 2 0.0 20.431512193652445 12.382283299611467 23.2078264579216 0 0 0
1498 1 6 0.0 22.553773463629835 13.935842346403675 23.237238442930227 0 0 0
2223 1 11 0.0 19.012729584728817 15.45618618245357 16.56324708049301 0 0 0
2225 1 6 0.0 19.814602951783627 15.674879129190655 15.984186732997179 0 0 0
2506 1 6 0.0 19.02915293676921 19.02295272282544 23.60171089088376 0 0 0
2514 1 2 0.0 24.761148179490423 13.569813125902547 17.01794889831692 0 0 0
5180 1 1 0.0 18.92502858585907 20.86608119617831 15.788286424186445 0 0 0
5184 1 2 0.0 18.947360885183485 19.835176656326055 16.144845242795412 0 0 0
5185 1 10 0.0 19.124314293249224 21.55695484239982 18.13830067096825 0 0 0
5189 1 4 0.0 18.60746082823072 20.55481373057146 18.600486935019376 0 0 0
6301 1 1 0.0 23.257986425858324 15.784496950869196 19.31467184374064 0 0 0
6302 1 1 0.0 23.010179356754684 15.912740458967178 17.92893680496739 0 0 0
6303 1 1 0.0 21.685989820105224 15.710193772890644 17.491196800262667 0 0 0
6304 1 1 0.0 22.239180683104905 15.428427981037474 20.216832534789113 0 0 0
6305 1 1 0.0 20.927919946074386 15.255481744530849 19.75194412827958 0 0 0
6306 1 1 0.0 20.634924500844097 15.426258984013415 18.390199700593538 0 0 0
6307 1 2 0.0 24.256144677125647 15.948141346655758 19.70792713533271 0 0 0
6308 1 2 0.0 21.443231492607325 15.836538743340816 16.455652378225658 0 0 0
6309 1 2 0.0 20.135446170542473 15.017789644754453 20.455951372816934 0 0 0
6310 1 10 0.0 22.55509779612123 15.260278664595257 21.672454500156146 0 0 0
6311 1 10 0.0 19.206541642431496 15.339009460745137 17.92484231450803 0 0 0
6312 1 10 0.0 24.15430772114448 16.350749992816688 17.021386928746892 0 0 0
6313 1 4 0.0 25.185927351470767 16.762665564960113 17.525177905041005 0 0 0
6314 1 4 0.0 23.072709212612963 16.163249531885022 22.306753665320183 0 0 0
6377 1 1 0.0 24.629622268443743 21.625017562850083 22.79954344123892 0 0 0
6387 1 10 0.0 24.59117103629884 20.604374454010678 21.676982193245095 0 0 0
6388 1 4 0.0 24.603602938576447 19.411663274051126 21.93364274141197 0 0 0
6494 1 4 0.0 19.294320176449578 17.328183249278016 21.836698074449394 0 0 0
6728 89 13 0.0 20.168701602966834 13.130583209100626 15.780626445473509 0 0 0
6843 153 9 0.0 19.759422991131803 11.508384633762057 15.00095449179003 0 0 0
656 1 2 0.0 32.050362342825764 12.465908973294898 17.191926471985916 0 0 0
657 1 6 0.0 32.33310253153415 13.519835844329425 15.122237217906385 0 0 0
701 1 1 0.0 30.73810232759073 16.96549346700425 18.160262529664475 0 0 0
702 1 1 0.0 31.246943892348508 18.09537943042785 18.81598699903936 0 0 0
703 1 1 0.0 30.60590262456209 19.331859988920854 18.66904577372458 0 0 0
704 1 1 0.0 29.671211567083706 17.0718064883338 17.251376099561192 0 0 0
705 1 1 0.0 29.02372449539497 18.315522747578484 17.11429404538414 0 0 0
706 1 1 0.0 29.453064576179532 19.425192158580522 17.86973473880071 0 0 0
707 1 2 0.0 31.21525618317322 16.00470678723801 18.318087239455604 0 0 0
708 1 2 0.0 32.12501801266921 18.00604197783299 19.44886516552429 0 0 0
709 1 2 0.0 30.97172431391657 20.197233273104832 19.215244339655655 0 0 0
710 1 11 0.0 28.66785526597808 20.60228819810404 17.886115242348264 0 0 0
711 1 11 0.0 29.402330451164726 15.926520890879955 16.44662268653584 0 0 0
712 1 2 0.0 28.17384793349504 18.423489791750683 16.453812877822216 0 0 0
713 1 6 0.0 30.099472490594376 15.201008462326502 16.554799260752187 0 0 0
714 1 6 0.0 28.498014173186654 21.0189942759185 16.978342845466095 0 0 0
841 1 1 0.0 26.04228410351644 14.614876435499456 23.05478051714232 0 0 0
842 1 1 0.0 25.637013650008665 13.359588711469947 23.533749318126606 0 0 0
844 1 1 0.0 27.17815283501571 15.252201560207356 23.593612700878673 0 0 0
847 1 2 0.0 25.44937718938933 15.10678955152413 22.291651753646242 0 0 0
851 1 11 0.0 27.511619495579218 16.580961631633024 23.208576401458277 0 0 0
2507 1 1 0.0 26.33747071117241 13.740183622039206 18.49220659277693 0 0 0
2508 1 1 0.0 25.767267266887913 13.27061925987931 17.29480971014323 0 0 0
2509 1 1 0.0 26.476140781836268 12.377961241004172 16.474273003153012 0 0 0
2510 1 1 0.0 27.613545691045616 13.304593592130814 18.889121602439374 0 0 0
2511 1 1 0.0 28.35807981738215 12.50046255322075 18.01333419012748 0 0 0
2512 1 1 0.0 27.784503875019432 12.007445909950782 16.83004711861095 0 0 0
2513 1 2 0.0 25.764855929613297 14.391659408591225 19.14164792903769 0 0 0
2515 1 2 0.0 26.0058518564434 11.984479596895058 15.578252982920274 0 0 0
2517 1 11 0.0 28.09101477564308 13.584028912116942 20.20133825736489 0 0 0
2518 1 2 0.0 29.35340309309159 12.17135092655105 18.301181298994766 0 0 0
2519 1 6 0.0 28.083104510878893 14.567012945667715 20.442378488834695 0 0 0
2969 1 1 0.0 31.21980366207191 18.35967608980792 22.867076179643863 0 0 0
2970 1 1 0.0 31.05370185656044 19.73866994517633 23.06122284036746 0 0 0
2975 1 2 0.0 31.11946411269535 17.94453257466211 21.86834292157336 0 0 0
2976 1 2 0.0 30.821224059638865 20.377616910416684 22.214508325890204 0 0 0
2979 1 11 0.0 31.73501318942374 16.13434868006189 23.655614021408244 0 0 0
2981 1 6 0.0 31.303497213986518 15.829296346128153 22.792180505310814 0 0 0
3497 1 1 0.0 32.42812599274979 13.738725749208147 22.17384964568123 0 0 0
3501 1 2 0.0 32.07027924263276 14.59096907794679 21.602819739548483 0 0 0
3506 1 4 0.0 31.77133700647233 13.1776876374133 19.415056268350604 0 0 0
4166 1 3 -0.5 25.70071818254452 19.586830760460487 15.171492679756469 0 0 0
4170 1 4 0.0 26.439421996456332 20.177315056598772 15.938499409473481 0 0 0
4555 1 2 0.0 30.882151929930426 14.383375683069119 15.1486460360061 0 0 0
4556 1 10 0.0 28.49782570356037 15.704455046978811 15.413754597109499 0 0 0
4560 1 4 0.0 27.5491033702023 16.432865800425926 15.172873463304354 0 0 0
5911 1 1 0.0 27.733515983193524 19.455108598783813 22.910795534432292 0 0 0
5912 1 1 0.0 27.990024508773207 20.836800389437762 22.76604511444032 0 0 0
5913 1 1 0.0 28.15013670589926 21.362403945465577 21.4676012503696 0 0 0
5914 1 1 0.0 27.717666635155005 18.59832442218373 21.78963601975794 0 0 0
5915 1 1 0.0 27.86499068421935 19.15746221073207 20.504948812900846 0 0 0
5916 1 1 0.0 28.060534537176643 20.539873441791034 20.32963568149988 0 0 0
5919 1 2 0.0 27.774203262626955 18.516581251726464 19.635185832201564 0 0 0
5920 1 10 0.0 27.51311145133232 17.108350185821187 21.92281286188923 0 0 0
5921 1 10 0.0 28.01406737588262 21.184098780097234 18.966642262165546 0 0 0
5924 1 4 0.0 27.37986148641604 16.40314240122891 20.937172138385158 0 0 0
6595 1 10 0.0 28.588407204666197 12.72083161945791 21.18375196003568 0 0 0
6599 1 4 0.0 29.12719575142855 13.18983718056001 22.16977323747706 0 0 0
6726 87 13 0.0 30.593893773084925 20.216889438772885 15.066757512136935 0 0 0
265 1 6 0.0 15.886722466186631 11.267817119268255 29.523676330934094 0 0 0
1040 1 1 0.0 17.6019499576647 12.013100892926559 25.442319330356792 0 0 0
1041 1 1 0.0 16.585497402896202 12.761708090088593 24.829065661633873 0 0 0
1042 1 1 0.0 15.323696971213046 12.185237045011078 24.626584373409443 0 0 0
1046 1 11 0.0 14.264164517086472 12.961439963010088 24.113069905779216 0 0 0
1048 1 2 0.0 16.76207317278082 13.77823374368565 24.494301376054693 0 0 0
2493 1 1 0.0 14.7795806222184 19.316203583315023 25.7913408294541 0 0 0
2494 1 1 0.0 15.457916807480963 18.09264835993276 25.887946225864024 0 0 0
2495 1 1 0.0 16.603942593737028 17.854165294230718 25.1165749895159 0 0 0
2496 1 1 0.0 15.232928996705132 20.31255052965722 24.911126100405102 0 0 0
2497 1 1 0.0 16.401771807744126 20.075986625845438 24.15005586948957 0 0 0
2498 1 1 0.0 17.069286592882744 18.83818854221324 24.228919740332838 0 0 0
2499 1 2 0.0 13.88666377341863 19.482333506381064 26.387419012931108 0 0 0
2500 1 2 0.0 15.083053885334383 17.322190999617185 26.548677586690786 0 0 0
2501 1 2 0.0 17.114437836996576 16.899024591562174 25.189974139901096 0 0 0
2503 1 11 0.0 14.471102260953716 21.5143119193399 24.816519030284947 0 0 0
2505 1 6 0.0 13.940255768564366 21.753057154479386 25.645410341136376 0 0 0
2720 1 1 0.0 11.319135895592972 13.391190787924675 29.198935423620192 0 0 0
2723 1 2 0.0 11.651677599293684 11.27988331794297 28.852781561856737 0 0 0
2727 1 11 0.0 12.711480754150417 13.668602462968387 29.12892979474203 0 0 0
2729 1 6 0.0 13.300513475074787 12.862380114554341 29.29744685825228 0 0 0
2894 1 11 0.0 11.805722529776478 20.18090382072649 30.25758913180587 0 0 0
2896 1 2 0.0 12.086810749897772 18.692087750429966 28.057542018834067 0 0 0
2897 1 6 0.0 11.321945022833784 16.762441313632586 26.78381932445408 0 0 0
2898 1 6 0.0 11.984278835082131 19.789264960209756 31.174749105518437 0 0 0
2913 1 1 0.0 16.362827490119553 15.549918280527901 32.44983343545956 0 0 0
2914 1 1 0.0 17.551044176862543 16.117263778205963 31.969662602669313 0 0 0
2917 1 1 0.0 17.41347777613338 13.36040166828752 32.45061518632508 0 0 0
2920 1 2 0.0 17.603569114248916 17.184926908671912 31.776884785176417 0 0 0
3643 1 4 0.0 14.731430366842348 12.031194600182907 31.610793132573825 0 0 0
4632 1 1 0.0 15.20480424895657 21.546392036524715 29.94859051457553 0 0 0
4633 1 1 0.0 16.440874102390655 21.31986182191027 30.58613398537466 0 0 0
4634 1 1 0.0 16.45250078562358 20.841634859863472 31.912703775725628 0 0 0
4635 1 1 0.0 13.991737212009443 21.24121065600947 30.594474923945988 0 0 0
4636 1 1 0.0 14.021892092687846 20.872235000859643 31.95344615704983 0 0 0
4638 1 2 0.0 15.186529044843649 21.847742701329903 28.905415089723988 0 0 0
4639 1 2 0.0 17.397099826883494 20.62263507845671 32.401937607784916 0 0 0
4640 1 2 0.0 13.096986511702818 20.6315742596973 32.47025612731401 0 0 0
4641 1 10 0.0 12.743144111060179 21.081797836825658 29.763677646417317 0 0 0
4643 1 12 0.0 17.734524703857595 21.48331833037009 29.835850161114326 0 0 0
4645 1 4 0.0 12.679826518241976 21.518509103802664 28.625597041778317 0 0 0
6226 1 1 0.0 15.653199849784126 15.928224189239156 28.773131270183157 0 0 0
6227 1 1 0.0 17.055785815748287 15.883172937603918 28.706840572976773 0 0 0
6228 1 1 0.0 17.698620560023752 14.628626105428502 28.75652402922969 0 0 0
6229 1 1 0.0 14.88349749134259 14.753110029519377 28.81659912369663 0 0 0
6230 1 1 0.0 15.546822585171869 13.510935408941283 28.83633469614274 0 0 0
6231 1 1 0.0 16.954357398080884 13.437845568529788 28.858429631191047 0 0 0
6232 1 2 0.0 15.15442839165275 16.889370886846322 28.742137901115917 0 0 0
6234 1 2 0.0 14.964013789775038 12.596373749193257 28.8344321138284 0 0 0
6235 1 10 0.0 13.378748468029984 14.846172409055443 28.81711112593523 0 0 0
6236 1 10 0.0 17.66626718836901 12.115992847720225 28.991706699318048 0 0 0
6237 1 10 0.0 17.827344957512725 17.167713122964916 28.546722077263635 0 0 0
6238 1 4 0.0 17.33145138691889 18.255627209080394 28.790256052729518 0 0 0
6239 1 4 0.0 12.808803766292213 15.890521718308943 28.54966899855862 0 0 0
6515 1 1 0.0 11.854502360071574 15.698804121381118 24.788193394024386 0 0 0
6516 1 1 0.0 12.485838486389893 14.6290331921445 24.14133794141995 0 0 0
6519 1 2 0.0 12.41442581661443 16.25702527052603 25.53207743651445 0 0 0
6521 1 10 0.0 13.857218859919449 14.200610754344764 24.583264145217882 0 0 0
6525 1 4 0.0 14.471921460641598 14.807352707652143 25.44602003973264 0 0 0
6690 51 13 0.0 11.770107897294379 18.358468284811508 32.248736520348075 0 0 0
6795 129 9 0.0 11.645364890027373 12.152886444191717 25.341951019591377 0 0 0
6796 129 14 0.5 12.14738591744716 11.542046423863148 25.903264137754952 0 0 0
6825 144 9 0.0 13.65322259415605 18.33379133612379 30.330182923229525 0 0 0
6826 144 14 0.5 14.385903819674503 17.99175693928125 30.87249033180449 0 0 0
1047 1 11 0.0 18.924273380834546 12.485864611843793 25.580162365618186 0 0 0
1049 1 6 0.0 19.60318362913897 11.748895444321096 25.7220058113083 0 0 0
1065 1 1 0.0 21.537463556348698 19.3661576079004 25.53552856138812 0 0 0
1066 1 1 0.0 20.265272001198866 19.85832308905545 25.865739457244782 0 0 0
1067 1 1 0.0 19.44968347266675 19.15097922817177 26.762580276609707 0 0 0
1068 1 1 0.0 22.020296369092332 18.190145785815275 26.135063160897346 0 0 0
1069 1 1 0.0 21.25678984975428 17.57131287747929 27.140895344345026 0 0 0
1070 1 1 0.0 19.932774824343408 17.976263225133245 27.37507436926583 0 0 0
1071 1 2 0.0 22.133963199815085 19.87902727628783 24.78580523410239 0 0 0
1072 1 2 0.0 19.88684813161058 20.752993953240143 25.3800700288603 0 0 0
1073 1 2 0.0 18.42609913994486 19.481544286528834 26.90496840512176 0 0 0
1074 1 11 0.0 19.077598539186052 17.014756519092494 27.972421712007662 0 0 0
1075 1 11 0.0 23.26264455173313 17.671447628634162 25.680553659370855 0 0 0
1076 1 2 0.0 21.627776951329373 16.678288586781356 27.63440619571174 0 0 0
1077 1 6 0.0 23.89558326374729 18.39595998393449 25.36402983428652 0 0 0
1078 1 6 0.0 19.3700934951023 16.058755154677993 27.810489303765824 0 0 0
1499 1 1 0.0 21.916466621840286 18.186555181291467 31.13962575078028 0 0 0
1500 1 1 0.0 21.857227387126027 19.52783385954685 30.715319077272763 0 0 0
1501 1 1 0.0 21.405640093085548 20.526673633216934 31.5941717486522 0 0 0