LAMMPS data file via write_data, version 29 Oct 2020, timestep = 511

7080 atoms
7273 bonds
11370 angles
19963 dihedrals
0 impropers

14 atom types
18 bond types
23 angle types
42 dihedral types

11.074817 53.925183 xlo xhi
11.074817 53.925183 ylo yhi
11.074817 53.925183 zlo zhi

Masses

 1 12.01
 2 1.008
 3 12.01
 4 16
 5 14.01
 6 1.008
 7 16
 8 14.01
 9 1.008
 10 12.01
 11 14.01
 12 12.01
 13 1.008
 14 16

Pair Coeffs

 1 0.086 3.39967
 2 0.015 2.59964
 3 0.086 3.39967
 4 0.21 2.95992
 5 0.17 3.25
 6 0.0157 1.06908
 7 0.2104 3.06647
 8 0.17 3.25
 9 0 0
 10 0.086 3.39967
 11 0.17 3.25
 12 0.086 3.39967
 13 0.0157 1.06908
 14 0.2104 3.06647

Atoms

 1 1 1 0.0 33.56620188725037 8.06675029175943 38.15801525863653
 2 1 1 0.0 34.613081826012944 8.90796339328632 37.75726055167748
 3 1 1 0.0 34.34586280029701 10.2333151990378 37.386595172271
 4 1 1 0.0 32.24999833024428 8.5529899331513 38.21254660018378
 5 1 1 0.0 31.987329639875455 9.89304894456234 37.88518555308676
 6 1 1 0.0 33.0278769656043 10.7235561830788 37.4315451867339
 7 1 2 0.0 33.77572246588339 7.02973876834128 38.401432511714845
 8 1 2 0.0 35.62768187952102 8.52701563703537 37.722929044976375
 9 1 2 0.0 35.16215675729682 10.8751057455436 37.0668245844903
 10 1 11 0.0 32.74156858460134 12.052447753098065 37.03668039497478
 11 1 11 0.0 31.206319709842106 7.64511010004816 38.509657822813175
 12 1 2 0.0 30.973437414873654 10.274388545611 37.94365042038818
 13 1 6 0.0 31.332850093445284 7.15986026444386 39.39020704571918
 14 1 6 0.0 32.182980299765696 12.590066612891828 37.68811065874286
 15 1 1 0.0 26.216286686690022 20.71023505530172 34.77095107966612
 16 1 1 0.0 26.117726109036457 21.13174713704868 33.43344619543567
 17 1 1 0.0 27.10174851392891 21.968972155843566 32.878353982900094
 18 1 1 0.0 27.273919903108958 21.167484614094114 35.57580893286103
 19 1 1 0.0 28.173486538344275 22.107502016810564 35.0483379983654
 20 1 1 0.0 28.1545893370557 22.435605208140945 33.68827167581246
 21 1 2 0.0 25.497448653505998 19.997422087015305 35.16363245646816
 22 1 2 0.0 25.310034781553757 20.759866267022172 32.81013095366596
 23 1 2 0.0 27.066889520519627 22.197512371842848 31.817968366096682
 24 1 11 0.0 29.324234263745247 23.060738249569116 33.19120377403821
 25 1 11 0.0 27.498461837080214 20.613786075218506 36.866850057594235
 26 1 2 0.0 28.986841864316013 22.48201238386833 35.662366338411985
 27 1 6 0.0 26.683027499867368 20.557356215607776 37.46475497968321
 28 1 6 0.0 30.126934905830026 22.9685600167922 33.801920110455654
 29 1 1 0.0 1.95436647944717 25.27498239067693 38.12766965603406
 30 1 1 0.0 1.64005872043801 24.55324808201237 36.96548581048058
 31 1 1 0.0 0.48869689105792 23.754852124275633 36.92089616310126
 32 1 1 0.0 1.12752925970135 25.194331821599143 39.26583477852554
 33 1 1 0.0 -0.0342789124477392 24.40536300170071 39.20538832808601
 34 1 1 0.0 -0.353754531464006 23.680267723780364 38.04447083590503
 35 1 2 0.0 2.84226841913149 25.889171993230537 38.127774746717606
 36 1 2 0.0 2.28640724614561 24.61894549003571 36.09500209398274
 37 1 2 0.0 0.242391209376429 23.22179645101713 36.006993647537485
 38 1 11 0.0 -1.56853905068497 22.953656749635396 38.01085889670348
 39 1 11 0.0 1.39285958511817 25.887546630286202 40.48159996673328
 40 1 2 0.0 -0.693306000280081 24.354071917006145 40.06867859380725
 41 1 6 0.0 0.595279572862147 25.949782294883512 41.10264593656585
 42 1 6 0.0 -2.34716654405639 23.404639930561373 38.47457373524781
 43 1 1 0.0 9.25328865968482 63.6211655591677 20.433592263948793
 44 1 1 0.0 8.34428108841571 64.4096973259509 21.15491844724745
 45 1 1 0.0 7.57976279421396 63.839334874836 22.18319738424795
 46 1 1 0.0 9.42595991653737 62.2639419694611 20.758394578498095
 47 1 1 0.0 8.64527765648912 61.6946127834377 21.780452296513875
 48 1 1 0.0 7.70401573682732 62.472962249838 22.479412162573812
 49 1 2 0.0 9.86522140057151 64.079887998813 19.661309181278053
 50 1 2 0.0 8.24755222948427 65.4671487428476 20.931886997859216
 51 1 2 0.0 6.88270301143839 64.4576104559635 22.74198462104328
 52 1 11 0.0 6.86871462396263 61.8956191081566 23.469772027675326
 53 1 11 0.0 10.4937704103091 61.5583467483788 20.149121472553983
 54 1 2 0.0 8.79069679738704 60.658553260231 22.0600209383673
 55 1 6 0.0 11.259168636859583 62.149551136484 19.85019350922272
 56 1 6 0.0 6.6597825700026 62.4783278434586 24.270963891991038
 57 1 1 0.0 31.21371665484753 24.566698238663875 15.03754150975827
 58 1 1 0.0 31.58377690581531 25.182086334299076 13.833137385408657
 59 1 1 0.0 32.0466700418414 26.507047045391975 13.831994470717103
 60 1 1 0.0 31.314382046727488 25.28148230658348 16.243811897519596
 61 1 1 0.0 31.80247164850725 26.598063987658495 16.238405187307443
 62 1 1 0.0 32.16962712728285 27.225792625901637 15.03241286972426
 63 1 2 0.0 30.83487569664632 23.549627965805062 15.025051507504696
 64 1 2 0.0 31.510679832575825 24.63408536526893 12.900500968148426
 65 1 2 0.0 32.33083875101773 26.97444292649003 12.894705416896262
 66 1 11 0.0 32.734339581991335 28.530475706595634 14.973155952870837
 67 1 11 0.0 30.923174453557078 24.736415627796724 17.49048877924884
 68 1 2 0.0 31.90516776878427 27.1092312966177 17.189184430476764
 69 1 6 0.0 30.67021641179455 25.430123576357417 18.18427773048839
 70 1 6 0.0 33.239343221980995 28.725497255239194 14.117587410187062
 71 1 1 0.0 11.396836620456389 44.342757383612444 -21.1160313220264
 72 1 1 0.0 10.1060577710933 44.55377556217539 -21.6265940063802
 73 1 1 0.0 8.9806133995079 44.13327911645127 -20.8972511662724
 74 1 1 0.0 11.563476719896482 43.620361731755416 -19.9271124925162
 75 1 1 0.0 10.4406933299322 43.14005895355263 -19.2397726798497
 76 1 1 0.0 9.13964073030166 43.46485694082197 -19.6700710876167
 77 1 2 0.0 12.261236918239506 44.74758014019371 -21.6323082028969
 78 1 2 0.0 9.97715583139277 45.08764531012231 -22.5627541577878
 79 1 2 0.0 7.98535973494261 44.35688362544019 -21.2709395246717
 80 1 11 0.0 7.98123459463261 43.12679468722675 -18.9135290241706
 81 1 11 0.0 12.836855430035266 43.45813262663167 -19.3372922637734
 82 1 2 0.0 10.6003560824141 42.561831746837306 -18.3385977874552
 83 1 6 0.0 13.07493523584638 44.156452320545974 -18.6433728014742
 84 1 6 0.0 7.16684998263284 42.90608220688364 -19.473819403078
 85 1 1 0.0 56.256334794849 46.21066079896527 -0.0999707798247798
 86 1 1 0.0 57.6291278695008 46.462723754677235 0.0246214153846793
 87 1 1 0.0 58.5145649738917 46.061281356241714 -0.987160063408815
 88 1 1 0.0 55.7638293468274 45.52693729668899 -1.22798630798531
 89 1 1 0.0 56.6460355019102 45.18085407883391 -2.26423339217352
 90 1 1 0.0 58.0219504567379 45.445627686231575 -2.15465511754388
 91 1 2 0.0 55.5849436690557 46.516343195629425 0.697483002091836
 92 1 2 0.0 58.0049175187061 46.960017889320966 0.912199443525822
 93 1 2 0.0 59.5757623802248 46.236655984590875 -0.854247776767217
 94 1 11 0.0 58.8559695753027 45.063663053968234 -3.23883303424347
 95 1 11 0.0 54.3983800741318 45.15353761754069 -1.33634152823996
 96 1 2 0.0 56.2631664827217 44.68034448149404 -3.15010484864761
 97 1 6 0.0 53.9812001404554 45.31863664634225 -2.24443134391054
 98 1 6 0.0 58.4374310852492 44.38713273662728 -3.8654651798501
 99 1 1 0.0 -0.943610142630803 71.9276211743644 35.55112745405283
 100 1 1 0.0 -0.268308554457377 70.6962684731498 35.59940671054437
 101 1 1 0.0 1.06747194767392 70.6062108222855 35.181018239872714
 102 1 1 0.0 -0.289906278989903 73.0740043148351 35.065567405070546
 103 1 1 0.0 1.05092332936326 72.9754167139034 34.64547804653676
 104 1 1 0.0 1.735240951881 71.7483445256603 34.71557779633469
 105 1 2 0.0 -1.97136231878459 71.9913143116476 35.898022921526476
 106 1 2 0.0 -0.771524011544606 69.8134829525702 35.97858141015701
 107 1 2 0.0 1.58515322230868 69.6532732629493 35.224956085212284
 108 1 11 0.0 3.08341622690526 71.6478133237925 34.29329633739869
 109 1 11 0.0 -0.96513170879043 74.3265774777053 35.09333242140505
 110 1 2 0.0 1.56678007903747 73.8521239610444 34.27453457075338
 111 1 6 0.0 -1.35945474762701 74.55648844789 35.997525970000005
 112 1 6 0.0 3.26547472415391 70.9807296513998 33.55382831973487
 113 1 1 0.0 -6.35432881086381 26.546098370149362 5.93627673249799
 114 1 1 0.0 -6.96818735091309 26.176674243259324 4.73110767174298
 115 1 1 0.0 -6.18805319882397 25.77331155858548 3.64065391179825
 116 1 1 0.0 -4.95191234573888 26.512254564723364 6.05178179747914
 117 1 1 0.0 -4.16843212188856 26.17885381305058 4.93369666289094
 118 1 1 0.0 -4.7901090101433 25.73013410190645 3.75479633681196
 119 1 2 0.0 -6.97035497893207 26.77410828924923 6.80061947597391
 120 1 2 0.0 -8.04777867308826 26.12958460144155 4.66141574183681
 121 1 2 0.0 -6.67117598151735 25.395635627109293 2.74489994965847
 122 1 11 0.0 -4.06251119482051 24.969896417864902 2.80902169380641
 123 1 11 0.0 -4.33241290705468 26.58286516778893 7.32367421098454
 124 1 2 0.0 -3.09109720848019 26.085147453607853 5.04291536570013
 125 1 6 0.0 -3.49368916878221 27.14758319768529 7.3847101417975
 126 1 6 0.0 -3.74802531845437 25.465698043802636 1.98380341668466
 127 1 1 0.0 18.22336376061438 24.125078636333747 13.846981022748565
 128 1 1 0.0 18.993246604532693 25.27315653057332 13.589185954998104
 129 1 1 0.0 20.338763514198703 25.33351499931459 13.99626751672085
 130 1 1 0.0 18.805887593975594 23.03850302942195 14.520738200114412
 131 1 1 0.0 20.142339808827114 23.111496021653874 14.938784861048351
 132 1 1 0.0 20.92196602984616 24.248304848978872 14.675400922931676
 133 1 2 0.0 17.189651957131474 24.076742322021826 13.515283289964739
 134 1 2 0.0 18.552651284844227 26.11095641409964 13.059235792183749
 135 1 2 0.0 20.928770322835938 26.218964226638686 13.775360952284295
 136 1 11 0.0 22.295079089661442 24.284197574863917 15.039113006274176
 137 1 11 0.0 18.102610594425613 21.83433935420991 14.761955749195476
 138 1 2 0.0 20.578833945459337 22.262836155039018 15.448916992414365
 139 1 6 0.0 18.24158677510027 21.126689019211614 14.051906297665147
 140 1 6 0.0 22.89425284360861 24.824191140261966 14.426390699080025
 141 1 1 0.0 7.69261808276492 39.3881641648867 7.89862901235295
 142 1 1 0.0 6.43418674257325 39.13207963321849 7.32695961585051
 143 1 1 0.0 5.37013061147249 38.6931421375095 8.13192323891792
 144 1 1 0.0 7.88560617727577 39.23203647826992 9.28440629718135
 145 1 1 0.0 6.82170133538823 38.777266302799156 10.0736732657322
 146 1 1 0.0 5.56805800499524 38.509227545014674 9.51072883800731
 147 1 2 0.0 8.49823005170162 39.72201867832835 7.26005821828521
 148 1 2 0.0 6.28683553208709 39.26666337661982 6.2587180589256
 149 1 2 0.0 4.40976942341668 38.4829514472806 7.68098139665671
 150 1 11 0.0 4.57153946522069 38.01536318712621 10.3811747884902
 151 1 11 0.0 9.08430161236336 39.55306687193887 9.9702125473619
 152 1 2 0.0 6.96488027850246 38.64505609703798 11.142841155702044
 153 1 6 0.0 8.99438568690189 39.50971965443393 10.9776630732767
 154 1 6 0.0 4.93768002015872 37.490588565845265 11.16544613429004
 155 1 1 0.0 7.03849148536266 11.7282063077387 31.696464041684735
 156 1 1 0.0 8.20679067232913 11.184481256992571 31.148625247692628
 157 1 1 0.0 9.38521409316107 11.146825545556949 31.906894577951878
 158 1 1 0.0 7.03859122363001 12.237824954702914 33.00488314982525
 159 1 1 0.0 8.2281464657723 12.194947394641979 33.76497191084133
 160 1 1 0.0 9.40213869405136 11.6199793368169 33.22803277981977
 161 1 2 0.0 6.12411371942208 11.727995418891197 31.112859363582864
 162 1 2 0.0 8.19489927864986 10.7914464255312 30.138777459070372
 163 1 2 0.0 10.2883765677747 10.7363367445886 31.471131421931684
 164 1 11 0.0 10.5992876619556 11.441982038690162 33.982719086991466
 165 1 11 0.0 5.79433469770048 12.669462578485595 33.54082280052355
 166 1 2 0.0 8.22434557530249 12.561034221412227 34.78513963708425
 167 1 6 0.0 4.98264763423242 12.244113388217643 33.11047232930171
 168 1 6 0.0 11.447418017397085 11.373704624986612 33.43305171607708
 169 1 1 0.0 -3.32490793594879 60.8267214852965 11.635749929689545
 170 1 1 0.0 -2.9197520073339 60.2188868026032 10.4366438410171
 171 1 1 0.0 -1.75682500735822 59.4322678170482 10.4016168926011
 172 1 1 0.0 -2.57168050007643 60.6474206118818 12.808657541999771
 173 1 1 0.0 -1.41166151891282 59.8466379829613 12.766621540260488
 174 1 1 0.0 -0.988088596588653 59.2471154921952 11.566186770034879
 175 1 2 0.0 -4.23126756791088 61.4259395766461 11.655566291089814
 176 1 2 0.0 -3.50856175910031 60.3555104944831 9.53415815159752
 177 1 2 0.0 -1.46859976356767 58.9587212832418 9.47167834943804
 178 1 11 0.0 0.170864012205804 58.4203954196707 11.589753312081992
 179 1 11 0.0 -3.04223440500418 61.214558872708 14.026615347806548
 180 1 2 0.0 -0.841443908904701 59.6731077902335 13.673818412403314
 181 1 6 0.0 -4.03670806550232 61.111449024213 14.19060204852587
 182 1 6 0.0 0.362681425094983 57.9912954537728 12.486921012463151
 183 1 1 0.0 2.6892958261467 0.358088422005501 40.11885331515049
 184 1 1 0.0 3.4572532797587 1.51200845354612 40.35306960326434
 185 1 1 0.0 4.56727353855273 1.46528029364839 41.212782518797056
 186 1 1 0.0 3.03556733859634 -0.851777789435211 40.744250839129016
 187 1 1 0.0 4.13726346647702 -0.885818361142007 41.61442033111479
 188 1 1 0.0 4.91719584554892 0.25774816823958 41.839687615574434
 189 1 2 0.0 1.86701092637481 0.391170183750376 39.4094911937236
 190 1 2 0.0 3.20750608040726 2.44046842674577 39.851934441608485
 191 1 2 0.0 5.15678084631087 2.36095356802191 41.37129473451024
 192 1 11 0.0 6.09793784524983 0.133118336763133 42.614181470535314
 193 1 11 0.0 2.46159216941182 -2.07121523288196 40.309627558081175
 194 1 2 0.0 4.45448960338427 -1.82855571548593 42.0466473305135
 195 1 6 0.0 2.5292374512938 -2.19419812611103 39.307122897108805
 196 1 6 0.0 6.96290270103505 0.407458575508919 42.164493386050076
 197 1 1 0.0 25.914592836618286 11.892040597591821 41.476521398152485
 198 1 1 0.0 25.87915753030001 13.026567930372371 42.29781963798054
 199 1 1 0.0 26.2309436735151 12.923019652922454 43.65269119276813
 200 1 1 0.0 26.329060843042633 10.6585559899233 42.00391911296913
 201 1 1 0.0 26.63896274638507 10.5473959590231 43.3736327196039
 202 1 1 0.0 26.574603276363582 11.68156078298012 44.212903619494966
 203 1 2 0.0 25.660503479853155 11.980517716157598 40.423528500421796
 204 1 2 0.0 25.58957207680821 13.985685712696242 41.87975992709145
 205 1 2 0.0 26.237197202315777 13.811596106134738 44.27470080548869
 206 1 11 0.0 26.902575893800396 11.65312874459082 45.59904370189228
 207 1 11 0.0 26.446450893934458 9.54790101775287 41.1324680275664
 208 1 2 0.0 26.958839618079743 9.58559887531376 43.760488540734855
 209 1 6 0.0 25.572335022819562 9.26112528934144 40.707860178117954
 210 1 6 0.0 27.192678581152414 12.545702983372456 45.9806211470642
 211 1 1 0.0 35.99801746902126 35.20336123698721 19.58171930315026
 212 1 1 0.0 36.3984350766409 35.99311286762692 20.66443250667464
 213 1 1 0.0 -6.05571243867018 35.39259933703182 64.7178022233451
 214 1 1 0.0 36.00457595241867 33.80060480100263 19.689395223322265
 215 1 1 0.0 36.37549779764166 33.20041277359405 20.90724794365455
 216 1 1 0.0 -6.08381788902379 33.99047431451528 64.8562640587348
 217 1 2 0.0 35.686193063217374 35.6881883390174 18.660923937870468
 218 1 2 0.0 36.409922869147074 37.07260120728598 20.563834133025953
 219 1 2 0.0 -5.71356694834449 36.028861727078386 65.5263184596173
 220 1 11 0.0 -5.65917281823533 33.342483549411014 66.049389286551
 221 1 11 0.0 35.5996280236253 33.00239064620334 18.587362755395684
 222 1 2 0.0 36.372452274222766 32.1176451540183 20.995217014707734
 223 1 6 0.0 34.922783303296 32.27597337733867 18.78859546799341
 224 1 6 0.0 -5.29831333925544 32.40603774605018 65.9171317562279
 225 1 1 0.0 24.32916790715145 38.40284424033262 -4.57768799589333
 226 1 1 0.0 23.939180001160473 38.84395376262492 -5.85423430947662
 227 1 1 0.0 66.0999570796747 37.97962723913239 36.13082896782966
 228 1 1 0.0 24.018024239928454 37.098532698684544 -4.15094978742572
 229 1 1 0.0 23.333752434818333 36.23693754664356 -5.02715973478895
 230 1 1 0.0 65.8132229552814 36.66676165313891 36.53742437083779
 231 1 2 0.0 24.876041651151933 39.07507758518576 -3.9228165240615
 232 1 2 0.0 24.17089370845931 39.85544828702728 -6.17332216297818
 233 1 2 0.0 65.80957009736 38.321414770776904 35.14235688405313
 234 1 11 0.0 65.1704960840157 35.7620420278382 35.656010101756486
 235 1 11 0.0 24.477596574092814 36.642993002620045 -2.88498961759542
 236 1 2 0.0 23.122648717582845 35.21331995788808 -4.73248915865766
 237 1 6 0.0 25.37508959332526 37.01301092428121 -2.59659323687288
 238 1 6 0.0 64.2272671443099 36.01485204741288 35.38668490904754
 239 1 1 0.0 32.930837731970556 6.32207981543949 46.16158079894005
 240 1 1 0.0 32.21393339617881 6.57829304784043 47.341608843020154
 241 1 1 0.0 32.601700855202814 5.97014413087953 48.546243914350406
 242 1 1 0.0 34.03515520641974 5.4517037687759 46.179198779086846
 243 1 1 0.0 34.433238726416775 4.85997205431639 47.394221296398904
 244 1 1 0.0 33.71302152675344 5.10895095266545 48.5765173286775
 245 1 2 0.0 32.62409380402226 6.79529193240118 45.23209849461508
 246 1 2 0.0 31.357254787844557 7.24565903134162 47.3209220329499
 247 1 2 0.0 32.039110085640765 6.16528915362167 49.45470488993046
 248 1 11 0.0 34.090804959188794 4.47908332571265 49.791717589290684
 249 1 11 0.0 34.74475589930443 5.21899107854023 44.971659971861655
 250 1 2 0.0 35.293140494231444 4.19909785824329 47.41975362419382
 251 1 6 0.0 34.85091563741325 6.02786831364794 44.37116430787547
 252 1 6 0.0 34.941855643224976 4.82610261788763 50.21757536209726
 253 1 1 0.0 19.32940073783077 9.7686238439394 28.630681625263705
 254 1 1 0.0 20.078175496285695 8.63720890540134 28.98584627797995
 255 1 1 0.0 19.514191001662073 7.65755533274819 29.814266217558192
 256 1 1 0.0 18.0092401187726 9.92575997283081 29.09133076807838
 257 1 1 0.0 17.457941429019208 8.94841833034602 29.94381817824966
 258 1 1 0.0 18.20947917830097 7.81463741299289 30.30804000626662
 259 1 2 0.0 19.778565062750545 10.5187309240134 27.98849326258478
 260 1 2 0.0 21.094296275497964 8.52052248493873 28.618715788302698
 261 1 2 0.0 20.1030559536324 6.79377096294732 30.09524155868629
 262 1 11 0.0 17.675888132743495 6.84691887459243 31.197352229395477
 263 1 11 0.0 17.29316732000008 11.095799515946203 28.71691712893741
 264 1 2 0.0 16.45635641252287 9.07366882007027 30.343280756980352
 265 1 6 0.0 17.874288976442564 11.905412099655196 28.536292182829396
 266 1 6 0.0 17.750171392704573 5.87928229042394 30.90816783414916
 267 1 1 0.0 23.97221171378231 25.816994959790215 54.9821367791069
 268 1 1 0.0 22.823813617802397 25.562795210814908 54.2178010305001
 269 1 1 0.0 22.55451779476993 26.33191211278943 53.07540071525215
 270 1 1 0.0 24.856434522386934 26.84036226013067 54.6059435987394
 271 1 1 0.0 24.584295362918443 27.613964835383044 53.46464386740229
 272 1 1 0.0 23.43153229413209 27.361127869281255 52.68784938303488
 273 1 2 0.0 24.172370590628493 25.219928199055413 55.8643794139076
 274 1 2 0.0 22.141211241921898 24.77281598845653 54.5139568954037
 275 1 2 0.0 21.65543628927006 26.136668409935584 52.4987202070169
 276 1 11 0.0 23.06464352137846 28.168495878790747 51.576076762099525
 277 1 5 0.0 26.009831858571957 27.101907341811206 55.3805343162544
 278 1 2 0.0 25.256859292645192 28.42879374312802 53.21445537619027
 279 1 6 0.0 26.582651961723506 27.87995951485663 55.0781680673534
 280 1 6 0.0 22.06935923752284 28.21283652478068 51.399845969435795
 281 1 1 0.0 16.870630957800415 55.1752865324151 16.776941715214786
 282 1 1 0.0 17.49148398160596 53.9837975676439 16.372965240925843
 283 1 1 0.0 17.12567117688376 52.767317966525376 16.967916288619758
 284 1 1 0.0 15.885326719738723 55.1602704539411 17.779536861399112
 285 1 1 0.0 15.543376998501062 53.9424030820074 18.392402667060512
 286 1 1 0.0 16.1491149313588 52.743938810994315 17.982191360589827
 287 1 2 0.0 17.14381766186258 56.1105527238022 16.296234468283558
 288 1 2 0.0 18.241231077393994 54.0007995695329 15.587318083853056
 289 1 2 0.0 17.587557270787077 51.85028061498303 16.620362796640237
 290 1 11 0.0 15.68823457317756 51.54306438686988 18.576724660306105
 291 1 11 0.0 15.26432436447416 56.3830888675946 18.13803796176792
 292 1 2 0.0 14.794826323023809 53.91364782220297 19.178670013459232
 293 1 6 0.0 15.830062278538962 57.2053408371503 17.96629292080208
 294 1 6 0.0 14.756847160208496 51.60327162340699 18.96958654786351
 295 1 1 0.0 28.84296799478535 27.64180050241153 2.30610223945883
 296 1 1 0.0 28.556666966636033 28.51376831801102 1.24476195611513
 297 1 1 0.0 29.178298714639503 28.337924670212352 -0.00182643466804677
 298 1 1 0.0 29.73760008321627 26.568541585874716 2.12511647051834
 299 1 1 0.0 30.341004727415864 26.38831989664903 0.868208028144757
 300 1 1 0.0 30.108509061373187 27.29951341878998 -0.178548866924601
 301 1 2 0.0 28.405147031747443 27.84139639058312 3.27659973667969
 302 1 2 0.0 27.88489710189348 29.35053429630719 1.40592424569566
 303 1 2 0.0 28.999582031765822 29.049268960816494 -0.802650322561504
 304 1 11 0.0 30.948140218061003 27.27385493440255 -1.32255014622031
 305 1 11 0.0 30.19603559328423 25.76972002983669 3.20901457863918
 306 1 2 0.0 31.082461524528682 25.606569325536697 0.739607523560331
 307 1 6 0.0 31.135524533953888 25.40968152850337 3.09524382532474
 308 1 6 0.0 30.785765104990112 26.498436125530866 -1.95360251875418
 309 1 1 0.0 -0.856895329313723 9.0921990155668 34.67412609960055
 310 1 1 0.0 -1.09478762281136 8.54514970763008 35.945804724185535
 311 1 1 0.0 -1.28774378191575 7.16154422958927 36.09079957669655
 312 1 1 0.0 -0.837174020697368 8.26472555930783 33.537365942516956
 313 1 1 0.0 -1.1702322896996 6.90705935864582 33.683359688356056
 314 1 1 0.0 -1.3040239594138 6.33251593377318 34.95725616019431
 315 1 2 0.0 -0.635441992732886 10.1511004329072 34.58324131986524
 316 1 2 0.0 -1.0732383313203 9.18446713128255 36.82440509291968
 317 1 2 0.0 -1.37180698454287 6.73283326093704 37.08413223550185
 318 1 11 0.0 -1.16816802741533 4.92960815184502 35.10818475534469
 319 1 11 0.0 -0.410103788441688 8.8132504992993 32.29424543316403
 320 1 2 0.0 -1.19959719457209 6.26390549627448 32.81957555735747
 321 1 6 0.0 -0.641885094986741 9.79159567192035 32.174524610087154
 322 1 6 0.0 -0.517469431033504 4.64807892104532 35.83174439151903
 323 1 1 0.0 9.89332318456948 20.67489203916733 35.9819395522401
 324 1 1 0.0 10.2673643628876 21.09279026360329 34.69931091217295
 325 1 1 0.0 11.60409224855492 20.98453119542034 34.29860420276616
 326 1 1 0.0 10.8375315242645 20.12963650093764 36.86941326712611
 327 1 1 0.0 12.18149222379444 19.996798352260114 36.449543635587084
 328 1 1 0.0 12.566902553280226 20.45213004594051 35.171068487216296
 329 1 2 0.0 8.87004660155742 20.824478891970806 36.30919888251803
 330 1 2 0.0 9.53030140850235 21.527937059533095 34.031026373026215
 331 1 2 0.0 11.900929973180835 21.3594204563447 33.32634342393751
 332 1 11 0.0 13.924893115661732 20.481149056894594 34.76094518232551
 333 1 11 0.0 10.3692484962699 19.87666117276958 38.18916229713646
 334 1 2 0.0 12.943743669557067 19.616665704372263 37.120670707487854
 335 1 6 0.0 9.41216863671176 20.17432987544217 38.333351635228325
 336 1 6 0.0 14.098083100345747 20.166830500063867 33.813983469380226
 337 1 1 0.0 7.64163224362032 30.93073145128121 46.17687841746886
 338 1 1 0.0 6.69449421034503 31.9240662482197 46.47145584352814
 339 1 1 0.0 6.3772856707926 32.227184641542394 47.80657131495232
 340 1 1 0.0 8.27968380945223 30.24431452772019 47.223565584238905
 341 1 1 0.0 7.98206212486761 30.566153658212485 48.55630638959694
 342 1 1 0.0 7.02105415488159 31.54916955935162 48.85572360903224
 343 1 2 0.0 7.87312220379833 30.69187252014423 45.142233401104335
 344 1 2 0.0 6.20060142113359 32.45120522247169 45.66152857971456
 345 1 2 0.0 5.63167586581127 32.9863686559112 48.02517063916758
 346 1 11 0.0 6.63710583355422 31.79124135090983 50.1995950438864
 347 1 11 0.0 9.21457885368415 29.216388355016285 46.95879321281723
 348 1 2 0.0 8.46610494402448 30.011752170432437 49.35555405193523
 349 1 6 0.0 10.1756718789398 29.442854619017904 47.184947102484294
 350 1 6 0.0 5.64004253713772 31.83685754391317 50.36900572083413
 351 1 1 0.0 50.17656181394202 35.36135301278616 53.13269101468906
 352 1 1 0.0 49.3367762574817 35.22107638485273 54.2496583311308
 353 1 1 0.0 47.98185565688604 34.889712068079085 54.0809559926174
 354 1 1 0.0 49.66436044548289 35.17865191721745 51.83688176166566
 355 1 1 0.0 48.29835430974513 34.87856460870691 51.673981965061216
 356 1 1 0.0 47.45109659860503 34.71924067877117 52.78589492586986
 357 1 2 0.0 51.23405086169321 35.5649137344929 53.27728959561365
 358 1 2 0.0 49.74256053197421 35.340505412654885 55.2498618075154
 359 1 2 0.0 47.37080512429765 34.74881986653793 54.9637881348809
 360 1 11 0.0 46.11231197684842 34.32270660380428 52.51088130693602
 361 1 11 0.0 50.5598243233748 35.10189738775345 50.73664164037815
 362 1 2 0.0 47.90282995931871 34.68713624703894 50.68011318763589
 363 1 6 0.0 51.39986751959228 34.56561454750392 50.91425668550359
 364 1 6 0.0 45.94144097094773 34.17259538379306 51.52477001335097
 365 1 1 0.0 -8.53216783762434 7.33303906508431 9.63627637884551
 366 1 1 0.0 -8.46556882004365 6.12790068637828 10.3551527315695
 367 1 1 0.0 33.7375436851032 48.85232574330981 54.4481371852874
 368 1 1 0.0 -9.24593755372219 8.42170683203769 10.1682234660153
 369 1 1 0.0 -9.87065293998599 8.29782713240281 11.41964642279337
 370 1 1 0.0 33.03792196715269 49.94810475839181 54.9961367367968
 371 1 2 0.0 -8.02202627819329 7.41836381794349 8.68092794456454
 372 1 2 0.0 -7.9128086215344 5.28779319724222 9.94633015866044
 373 1 2 0.0 33.775592692914245 47.8983814088255 54.9636705641299
 374 1 11 0.0 32.31733093241391 49.891118187218794 56.2225049926907
 375 1 11 0.0 -9.33100503514414 9.67763927931212 9.5191757429555
 376 1 2 0.0 -10.4167934650751 9.14338105518921 11.827274867027747
 377 1 6 0.0 -9.41729548375942 10.4625062970507 10.1532000775862
 378 1 6 0.0 31.55519540806842 50.55508168779095 56.2883261798715
 379 1 1 0.0 32.133779652501026 29.026718616688736 27.592245254554502
 380 1 1 0.0 32.102812093550014 30.181426387249413 26.801196942656055
 381 1 1 0.0 31.817597527698172 31.42639897412992 27.383184816099014
 382 1 1 0.0 31.83234996316894 29.11179670072294 28.960657695616174
 383 1 1 0.0 31.532259723861042 30.357724741628626 29.538461755269882
 384 1 1 0.0 31.528453475681438 31.52814656526589 28.760553783787177
 385 1 2 0.0 32.35506481145005 28.065376424779284 27.13611336658887
 386 1 2 0.0 32.31263147803001 30.11195269775289 25.738909609114888
 387 1 2 0.0 31.863926467656075 32.30485046619272 26.753357206296396
 388 1 11 0.0 31.341127652510192 32.773187514814865 29.429895092968493
 389 1 11 0.0 31.764222275141453 27.93953681648888 29.746330906602996
 390 1 2 0.0 31.316160561593627 30.420982738915136 30.60077448058739
 391 1 6 0.0 30.904158918522132 27.80211785285589 30.263226019665648
 392 1 6 0.0 31.712574314603117 32.79374646775454 30.37204268001909
 393 1 1 0.0 25.97103307153625 35.26098507517454 47.028259338454276
 394 1 1 0.0 26.982825951942566 36.20780821112683 46.80257527272893
 395 1 1 0.0 28.16359477092595 36.17158782842098 47.55906207461526
 396 1 1 0.0 26.132216680501628 34.27094221734966 48.01966264079366
 397 1 1 0.0 27.317144611573262 34.24757254303651 48.77784596039332
 398 1 1 0.0 28.333054463716834 35.188772581282215 48.54783074562241
 399 1 2 0.0 25.080417578318457 35.309980972904505 46.41358279608476
 400 1 2 0.0 26.852555639079945 36.96926273174885 46.03872599549879
 401 1 2 0.0 28.940243087641814 36.90966492988627 47.38407369807573
 402 1 11 0.0 29.52275137885714 35.151499694218856 49.312376595471626
 403 1 11 0.0 25.177142253281072 33.25475781714273 48.29434093007417
 404 1 2 0.0 27.452811827012937 33.48999483220778 49.545448362521036
 405 1 6 0.0 25.508932033708493 32.55922088672761 48.95029622598694
 406 1 6 0.0 29.45281469534724 35.46600548985739 50.27259796459103
 407 1 1 0.0 -4.89546682059646 47.62217755512511 3.24472947146447
 408 1 1 0.0 -5.09685459701365 48.581706043026244 4.24740766604032
 409 1 1 0.0 -4.94387949107571 48.23352607833785 5.59726529679442
 410 1 1 0.0 -4.57495925690322 46.29771482601848 3.59104616692444
 411 1 1 0.0 -4.45575802190722 45.94725393760773 4.94752040372336
 412 1 1 0.0 -4.60242669032364 46.91980550016624 5.9505100300449
 413 1 2 0.0 -5.01263089727687 47.905732794465436 2.20365558710893
 414 1 2 0.0 -5.36639954896155 49.595821416567766 3.97828113694546
 415 1 2 0.0 -5.07514210685068 48.985970585163926 6.36612287897019
 416 1 11 0.0 -4.33826405202104 46.59655841419659 7.30338026697693
 417 1 11 0.0 -4.41775789501553 45.29863243028442 2.59747466791698
 418 1 2 0.0 -4.18749963352393 44.93302736019476 5.22230073012352
 419 1 6 0.0 -4.86145595737417 44.412088999849274 2.80430512094915
 420 1 6 0.0 -3.45301294856905 46.91804676224058 7.67600845209267
 421 1 1 0.0 7.72164593689588 37.14562024047106 29.14263952431295
 422 1 1 0.0 8.95211169176969 36.91940296852255 28.51166917485062
 423 1 1 0.0 9.34488766774327 35.61023752938536 28.20096372626589
 424 1 1 0.0 6.8864081182947 36.06788501508385 29.479171584836244
 425 1 1 0.0 7.28905880148514 34.75124211653884 29.17893211855967
 426 1 1 0.0 8.51580229285495 34.51963953155201 28.52052541796353
 427 1 2 0.0 7.41296631745176 38.16166755400612 29.36408898473
 428 1 2 0.0 9.59263399625641 37.75698112917133 28.250694930552275
 429 1 2 0.0 10.2870631036253 35.44448798155212 27.685318794375217
 430 1 11 0.0 8.92838823604642 33.24128685821559 28.057091178761784
 431 1 11 0.0 5.6138860463107 36.35142150597538 30.035909360532987
 432 1 2 0.0 6.62534951932152 33.9261709268373 29.406690468734872
 433 1 6 0.0 5.02061720346411 36.94159709805653 29.465915308515676
 434 1 6 0.0 9.60188670027519 33.28360779156218 27.30223805377301
 435 1 1 0.0 13.597656119211997 50.400359885214286 -13.1341681265139
 436 1 1 0.0 13.956343081404132 49.1434937872595 -12.6274326327117
 437 1 1 0.0 13.370178729840399 47.977670491489256 -13.1471464943286
 438 1 1 0.0 12.634000237201294 50.49053534886262 -14.1514933208197