216H2O,WATJP01,SPC216,SPC-MODEL,300K,BOX(M)=1.86206NM,WFVG,MAR. 1984

3 atoms
2 bonds
1 angles
0 dihedrals
0 impropers

16 atom types
19 bond types
24 angle types
42 dihedral types
0 improper types

0.000000 18.621000 xlo xhi
0.000000 18.621000 ylo yhi
0.000000 18.621000 zlo zhi

Masses # id, mass [g/mol]

 1  12.0100000 # CA (carbon aromatic)
 2   1.0080000 # HA (hydrogen aromatic)
 3  12.0100000 # C  (carbon in carboxyl)
 4  16.0000000 # O  (oxygen)
 5  14.0100000 # N (nitrogen with 1 hydrogen)
 6   1.0080000 # HN (hydrogen on nitrogen)
 7  16.0000000 # OH (protonated carboxyl oxygen)
 8  14.0100000 # NH (nitrogen with 2 hydrogens)
 9   1.0080000 # HO (hydrogen on oxygen)
 10 12.0100000 # LC (crosslinked carbon)
 11 14.0100000 # LN (crosslinked nitrogen)
 12 12.0100000 # CT (terminated carbon on carboxyl group)
 13  1.0080000 # H (free hydrogen for termination)
 14 16.0000000 # OR (reactive oxygen in free hydroxyl)
 15 15.9994000 # OW (oxygen in water)
 16  1.0080000 # HW (hydrogen in water)


Pair Coeffs # id, epsilon [kcal/mol], sigma [Angstroms]

 1  0.0860000 3.3996695 # CA
 2  0.0150000 2.5996425 # HA
 3  0.0860000 3.3996695 # C
 4  0.2100000 2.9599219 # O
 5  0.1700000 3.2499985 # N
 6  0.0157000 1.0690785 # HN
 7  0.2104000 3.0664734 # OH
 8  0.1700000 3.2499985 # NH
 9  0.0000000 0.0000000 # HO
 10 0.0860000 3.3996695 # LC
 11 0.1700000 3.2499985 # LN
 12 0.0860000 3.3996695 # CT
 13 0.0157000 1.0690785 # H
 14 0.2104000 3.0664734 # OR
 15 0.1020000 3.1880000 # OW
 16 0.0000000 0.0000000 # HW

Atoms

 1 1 15 -0.830 2.287 6.274 1.123
 2 1 16 0.415 1.300 6.293 1.609
 3 1 16 0.415 2.393 5.863 0.108

Bonds

 1 19 1 2
 2 19 1 3

Angles 

 1 24 1 2 3