LAMMPS data file via write_data, version 29 Oct 2020, timestep = 2000

8493 atoms
16 atom types
8390 bonds
19 bond types
12079 angles
24 angle types
20158 dihedrals
42 dihedral types

15.744726713394513 49.25527328660532 xlo xhi
15.744726713394513 49.25527328660532 ylo yhi
-30.195 98.2 zlo zhi

Masses

1 12.01
2 1.008
3 12.01
4 16
5 14.01
6 1.008
7 16
8 14.01
9 1.008
10 12.01
11 14.01
12 12.01
13 1.008
14 16
15 15.9994
16 1.008

Pair Coeffs # lj/cut/coul/long/omp

1 0.086 3.39967
2 0.015 2.59964
3 0.086 3.39967
4 0.21 2.95992
5 0.17 3.25
6 0.0157 1.06908
7 0.2104 3.06647
8 0.17 3.25
9 0 0
10 0.086 3.39967
11 0.17 3.25
12 0.086 3.39967
13 0.0157 1.06908
14 0.2104 3.06647
15 0.102 3.188
16 0 0

Atoms # full

6910 74 15 -0.83 15.876190232988478 22.03695370722895 -23.803733687604435 0 0 0
6911 74 16 0.415 16.687023159967882 21.735952674163293 -24.209377238158627 0 0 0
6912 74 16 0.415 16.68460850025283 21.74741898830807 -24.24554720028124 0 0 0
7234 182 15 -0.83 20.078041105222866 20.868228968043308 -24.484361089407713 0 0 0
7235 182 16 0.415 19.968310929721195 20.111718793884762 -23.904325470588297 0 0 0
7236 182 16 0.415 19.969787236708015 20.125229384067268 -23.87146096020242 0 0 0
7554 288 16 0.415 21.85222073802599 23.778482203946986 -22.517483214744104 0 0 0
7553 288 16 0.415 21.877082659318837 23.758210708273623 -22.496851281460422 0 0 0
6727 13 15 -0.83 29.971978431777817 19.450067512720043 -26.154394844928664 0 0 0
6728 13 16 0.415 29.590137952225597 18.68266646217832 -26.567763878348234 0 0 0
6729 13 16 0.415 29.6212277761872 18.6551353046786 -26.56876464653215 0 0 0
6745 19 15 -0.83 29.293586534109373 22.68253976654888 -26.272594637578788 0 0 0
6746 19 16 0.415 29.8703177038612 23.037796200135872 -25.600336544221076 0 0 0
6747 19 16 0.415 29.904094720208494 23.044720887387278 -25.619277724420677 0 0 0
7193 168 16 0.415 32.1747717169116 18.15352785033563 -22.243808037814414 0 0 0
7321 211 15 -0.83 28.456594988769996 18.324642484162748 -29.507893548996666 0 0 0
7322 211 16 0.415 27.71929004702226 18.95361485199868 -29.482352177848295 0 0 0
7323 211 16 0.415 27.691301723277746 18.934031851046328 -29.484442996835465 0 0 0
7456 256 15 -0.83 25.593204789669223 21.12107778180232 -23.705876266460407 0 0 0
7457 256 16 0.415 25.389078532080227 21.22003459240002 -24.63627452750437 0 0 0
7458 256 16 0.415 25.41311743867776 21.19904665164477 -24.653022510435452 0 0 0
7194 168 16 0.415 32.204963814297834 18.141148658441466 -22.225887854631875 0 0 0
6937 83 15 -0.83 23.421720533016334 29.312900297717963 -28.353060507807132 0 0 0
6938 83 16 0.415 23.223841555451926 28.969185691206444 -27.48450855407639 0 0 0
6939 83 16 0.415 23.250613870559622 28.93971520260697 -27.47949759776664 0 0 0
7225 179 15 -0.83 21.96744184430363 25.808986577323473 -27.510531673730803 0 0 0
7226 179 16 0.415 21.061199015864045 25.99930657599524 -27.743781714568396 0 0 0
7227 179 16 0.415 21.063550397113076 26.01646126856723 -27.778563418733146 0 0 0
7378 230 15 -0.83 16.832059587054346 32.28123778743576 -28.73486987364996 0 0 0
7379 230 16 0.415 16.111058711559235 32.089744134598995 -28.094509313414363 0 0 0
7380 230 16 0.415 16.1216269919829 32.088126232246246 -28.074316612504106 0 0 0
7384 232 15 -0.83 16.163741203683827 24.933631349007072 -24.972566486664025 1 0 0
7228 180 15 -0.83 15.770454682307175 28.251267078883487 -24.249561821306933 1 0 0
6794 35 16 0.415 28.481990899687744 29.478967979103402 -29.770188254368005 0 0 0
6795 35 16 0.415 28.48367810379351 29.444513588920977 -29.780005535718697 0 0 0
6853 55 15 -0.83 28.489967752025162 25.0524182457643 -22.574033495347553 0 0 0
6859 57 15 -0.83 26.20861906275723 29.015914663383626 -25.54170682246276 0 0 0
6860 57 16 0.415 26.175934375877244 29.193858252598673 -24.60271912657133 0 0 0
6861 57 16 0.415 26.169104887054022 29.159248218096327 -24.58664271416708 0 0 0
7099 137 15 -0.83 25.646087987479795 24.516085355684954 -25.226891172569385 0 0 0
7100 137 16 0.415 25.736010144240186 24.788500328355564 -26.136236041747836 0 0 0
7101 137 16 0.415 25.702569958847146 24.77605375074716 -26.153932260727093 0 0 0
7111 141 15 -0.83 29.776451405172562 28.829904466204862 -22.758899147245813 0 0 0
7112 141 16 0.415 29.337283489237336 29.382168652926822 -23.40648684527209 0 0 0
7113 141 16 0.415 29.355303747827627 29.374141716963667 -23.439301811787814 0 0 0
7522 278 15 -0.83 30.947015778568296 32.04644909646836 -27.40415485641521 0 0 0
7084 132 15 -0.83 20.425047456020177 22.70039807311727 -18.25050529300049 0 0 0
7085 132 16 0.415 21.09325244626995 22.08556829077196 -17.960333587686872 0 0 0
7086 132 16 0.415 21.11897136593226 22.08233419113995 -17.99290073937838 0 0 0
7132 148 15 -0.83 22.73475848809025 16.233215651774948 -17.571061267343666 0 0 0
7133 148 16 0.415 22.412925506138482 16.551535927459117 -16.724075467118567 0 0 0
7134 148 16 0.415 22.383190598153803 16.530590826370634 -16.716945579963372 0 0 0
7009 107 15 -0.83 20.748786758090045 15.94538047735032 -15.064969112355968 0 1 0
7363 225 15 -0.83 20.154345903978754 18.0244720257511 -22.07636795667603 0 0 0
7364 225 16 0.415 19.889531296514452 18.133048971130297 -21.166148985013056 0 0 0
7365 225 16 0.415 19.847047615527114 18.13134122832932 -21.167176927083094 0 0 0
7371 227 16 0.415 23.684041467812722 23.52932232526319 -16.485598181654993 0 0 0
7370 227 16 0.415 23.694423520264753 23.56356093578078 -16.4887877155435 0 0 0
7324 212 15 -0.83 15.8177779032109 17.76457251019918 -17.213872945178515 1 0 0
6913 75 15 -0.83 22.63313027541526 18.775242973746472 -14.362186345296557 0 0 0
7461 257 16 0.415 32.21255900922237 22.28353060419814 -21.771090987350462 0 0 0
6943 85 15 -0.83 28.53678467035213 17.292383510624695 -16.50525523161816 0 0 0
6944 85 16 0.415 27.99755382826654 17.069680334130886 -15.752274965939435 0 0 0
6945 85 16 0.415 27.979391889164518 17.107580111506074 -15.740743088536718 0 0 0
7090 134 15 -0.83 24.85980388888978 22.30771759157973 -19.33106984013662 0 0 0
7091 134 16 0.415 25.227932171629455 21.574245759306745 -19.821146571764764 0 0 0
7092 134 16 0.415 25.22745812417605 21.544491535009474 -19.796267669786005 0 0 0
7138 150 15 -0.83 29.010950436029383 17.723342320220148 -19.78313149662195 0 0 0
7139 150 16 0.415 28.252240945304763 18.257695630200434 -20.0000048765952 0 0 0
7140 150 16 0.415 28.242977575221012 18.276482770441202 -19.963223225672525 0 0 0
7282 198 15 -0.83 27.706211985982037 20.796816428146847 -16.520440215154274 0 0 0
7283 198 16 0.415 27.765017500353714 21.74634307049151 -16.49887677319557 0 0 0
7284 198 16 0.415 27.79807711591938 21.755098273137623 -16.522712988427056 0 0 0
7369 227 15 -0.83 24.532806206386525 23.60276902301332 -16.027982639319273 0 0 0
7460 257 16 0.415 32.22044514046363 22.305233149020612 -21.742858091129293 0 0 0
7543 285 15 -0.83 28.780982787379937 21.769231781982104 -20.39717623205093 0 0 0
7544 285 16 0.415 28.380420760172363 22.274245711863884 -21.103589899813517 0 0 0
7545 285 16 0.415 28.38060256776221 22.25083643824337 -21.132898131897107 0 0 0
6849 53 16 0.415 19.72637404285965 28.687541858843655 -22.11564986300978 0 0 0
6834 48 16 0.415 16.985308464770952 24.484818819546216 -21.548012984872294 0 0 0
6810 40 16 0.415 23.849300177290335 26.800732442282527 -19.434645827927262 0 0 0
6832 48 15 -0.83 16.258429969418586 24.19929687951768 -20.97992214894046 0 0 0
6833 48 16 0.415 16.952560233380805 24.500952611309675 -21.562271337628655 0 0 0
6847 53 15 -0.83 20.430009338297854 28.70636695044583 -21.45169288589132 0 0 0
6848 53 16 0.415 19.725023647639507 28.655114017061955 -22.09807907980314 0 0 0
7171 161 15 -0.83 16.704052939376812 30.555000600514745 -15.154912845011879 0 0 0
7172 161 16 0.415 16.853203334064357 29.6157660306204 -15.177764107957007 0 0 0
7173 161 16 0.415 16.853623937463908 29.604948270769835 -15.137544897770058 0 0 0
7357 223 15 -0.83 20.415413108779582 27.585133217247648 -17.022298941855425 0 0 0
7358 223 16 0.415 20.05046516420084 27.38699219829923 -17.88767935121922 0 0 0
7359 223 16 0.415 20.075206626059675 27.401969969281872 -17.911744907244227 0 0 0
7423 245 15 -0.83 17.500453645842303 28.954175293804155 -20.030041588452722 0 0 0
7424 245 16 0.415 17.27645956938646 29.156298607537476 -19.125456909786177 0 0 0
7425 245 16 0.415 17.258128767257105 29.12249965177146 -19.11150877673361 0 0 0
7441 251 15 -0.83 20.47304463181702 30.009821300494384 -14.460380364408515 0 0 0
7442 251 16 0.415 20.87221249917809 29.36973380362861 -15.050328566893487 0 0 0
7443 251 16 0.415 20.87849893359117 29.387745996722256 -15.079817469763967 0 0 0
7552 288 15 -0.83 22.09663640505688 24.322906481731447 -21.75862184261562 0 0 0
6809 40 16 0.415 23.865097953332715 26.835301872230083 -19.429833873939472 0 0 0
7081 131 15 -0.83 29.699150703161717 32.46073741925633 -22.013109634985685 0 0 0
7152 154 16 0.415 32.42963519675739 24.533752956220198 -16.71546949481926 0 0 0
6855 55 16 0.415 28.88954292099169 25.697756438078997 -21.97893300705274 0 0 0
7542 284 16 0.415 26.978244873259573 25.41832281724012 -15.584511136190818 0 0 0
7540 284 15 -0.83 27.94080986341183 25.57115025040595 -15.59311039492899 0 0 0
7541 284 16 0.415 26.991119724595478 25.40054402132965 -15.613163084126212 0 0 0
7350 220 16 0.415 30.565509029034864 26.26668072997285 -18.872819289515963 0 0 0
7151 154 16 0.415 32.41220199514719 24.507114681549222 -16.733420697242803 0 0 0
6808 40 15 -0.83 24.64994847663099 26.661631915889323 -18.913271329964186 0 0 0
6854 55 16 0.415 28.846397017481703 25.7022987683897 -21.975854103169976 0 0 0
6883 65 15 -0.83 29.54588311105246 30.61005686384149 -18.60561065201034 0 0 0
6884 65 16 0.415 30.028559694989433 30.040078295615274 -19.210883821157157 0 0 0
6885 65 16 0.415 30.043113459022244 30.06189551965961 -19.23350109695653 0 0 0
6934 82 15 -0.83 26.428701289690533 28.910646128824357 -15.716218295942031 0 0 0
6935 82 16 0.415 27.16660825331113 29.379732487830253 -16.097545282343233 0 0 0
6936 82 16 0.415 27.185591082657197 29.39422205038676 -16.06709121279874 0 0 0
6976 96 15 -0.83 26.46880920175133 31.066751813961965 -21.727055598225363 0 0 0
6977 96 16 0.415 26.506854987104607 31.44023699712861 -20.841851627166132 0 0 0
6978 96 16 0.415 26.516288782614144 31.475112523793573 -20.847114866239195 0 0 0
7348 220 15 -0.83 31.1370702289029 26.722019082255624 -18.24046805328034 0 0 0
7349 220 16 0.415 30.542973828957287 26.273203021143946 -18.838953881897204 0 0 0
6740 17 16 0.415 23.82832755484514 22.732507078827503 -6.337964578373461 0 0 0
6742 18 15 -0.83 21.494369026338802 18.738829297035668 -9.095486359291252 0 0 0
6743 18 16 0.415 22.017052989581995 19.43549060990316 -8.701443436153642 0 0 0
6744 18 16 0.415 22.0160927203471 19.46245540589501 -8.725942030050119 0 0 0
6914 75 16 0.415 23.245644669158747 19.34825716169111 -13.884971354735791 0 0 0
6947 86 16 0.415 16.769436908896438 23.51761946174021 -8.102380428761839 0 0 0
6948 86 16 0.415 16.744081131708388 23.49745612863996 -8.121817393756908 0 0 0
7198 170 15 -0.83 15.812549179593333 17.70911405258603 -10.481081882455522 0 0 0
7078 130 15 -0.83 22.722006903891547 22.798350664991375 -12.303172738585083 0 0 0
7079 130 16 0.415 23.553572107572833 23.14655751618738 -11.982994999021699 0 0 0
7080 130 16 0.415 23.55051217252004 23.145455403957893 -11.94707000360499 0 0 0
7135 149 15 -0.83 19.239975187437807 16.855265221712273 -12.9797828148453 0 0 0
7136 149 16 0.415 19.925948952514926 17.177198153218782 -13.572877771800032 0 0 0
7199 170 16 0.415 15.943941802146 17.8610683399579 -11.436662736796173 0 0 0
7200 170 16 0.415 15.963106976447712 17.749225281794104 -11.481547408824339 0 0 0
7237 183 15 -0.83 18.422581986898354 21.331519238740402 -9.869615761718137 0 0 0
7238 183 16 0.415 18.639376985161515 20.471115696654728 -10.237884020022259 0 0 0
7239 183 16 0.415 18.650034054065387 20.47817586235658 -10.271672791209669 0 0 0
7354 222 15 -0.83 17.966433688345173 16.575505857011365 -8.6505758239535 0 0 0
6868 60 15 -0.83 15.895607308208035 17.95242829238755 -12.890818075261642 1 0 0
6741 17 16 0.415 23.861198658121886 22.732355085124645 -6.3138451005596155 0 0 0
7137 149 16 0.415 19.911219710477344 17.16898548177713 -13.611120861376842 0 0 0
6915 75 16 0.415 23.279045523904244 19.337715632671785 -13.896728041892306 0 0 0
6724 12 15 -0.83 28.995989245150678 20.539661431294665 -12.130827710980558 0 0 0
6725 12 16 0.415 29.223940068618603 21.47096310248942 -12.163732026994085 0 0 0
6726 12 16 0.415 29.200357771007994 21.484992219016227 -12.185793304158588 0 0 0
6739 17 15 -0.83 24.13993184285823 22.313682376136267 -7.136723250507828 0 0 0
6778 30 15 -0.83 25.960823849375924 16.571704571790065 -13.346671126061242 0 0 0
6844 52 15 -0.83 30.71834822266861 22.11707738423996 -7.959878705167506 0 0 0
6845 52 16 0.415 30.747167786479967 21.478811012533825 -8.679254885470797 0 0 0
6846 52 16 0.415 30.725986944723743 21.451343042995816 -8.667864490638705 0 0 0
6862 58 15 -0.83 29.759035259029034 17.40685514020395 -10.170186601995264 0 0 0
6863 58 16 0.415 29.004393735340102 16.989140134702243 -10.579110847276619 0 0 0
6864 58 16 0.415 29.013407236304047 16.987493555077965 -10.618393479891408 0 0 0
7039 117 15 -0.83 24.861032747169855 16.63293779392011 -9.964954606481792 0 0 0
7127 146 16 0.415 32.421161916186165 22.41211141749034 -13.875611813128417 0 0 0
7075 129 15 -0.83 26.839610516585292 19.267522675833717 -6.835297774180477 0 0 0
7076 129 16 0.415 26.10724114215698 18.75917461474989 -6.493981837844697 0 0 0
7126 146 15 -0.83 31.9499483695438 23.15714911823798 -13.501177295318975 0 0 0
7255 189 15 -0.83 25.347386986272017 19.93207083784159 -11.596197509712287 0 0 0
7256 189 16 0.415 26.149348875149645 19.73585683506799 -11.10178872295264 0 0 0
7257 189 16 0.415 26.156753058881925 19.765876066579917 -11.084409045524037 0 0 0
7558 290 15 -0.83 28.222510716127076 23.599927911325846 -10.970181832330375 0 0 0
7077 129 16 0.415 26.09101330818479 18.78259834193778 -6.46720536746611 0 0 0
7128 146 16 0.415 32.397231327185345 22.397023590390717 -13.901040207384767 0 0 0
6946 86 15 -0.83 16.972335365304176 24.265021418240803 -8.671112728858667 0 0 0
6697 3 15 -0.83 16.424653905310976 28.813021107894187 -9.66696610602474 0 0 0
6698 3 16 0.415 16.263948472744648 29.71303997264046 -9.953461168488301 0 0 0
6699 3 16 0.415 16.285740581788026 29.71753274340913 -9.982065780427133 0 0 0
6772 28 15 -0.83 19.786421299706994 26.82986517890525 -9.838350940378119 0 0 0
6773 28 16 0.415 19.043014483357762 26.2228156185602 -9.78096406815797 0 0 0
6774 28 16 0.415 19.01856515984937 26.240667492462002 -9.763089317465283 0 0 0
7165 159 15 -0.83 23.02635087564699 30.6609225455817 -10.553523479924218 0 0 0
7166 159 16 0.415 22.146065463944076 31.004840029091056 -10.713868203759366 0 0 0
7167 159 16 0.415 22.1495727166491 31.040399150113064 -10.709530381823194 0 0 0
7249 187 15 -0.83 22.63579769344897 27.271284626530715 -7.605499225094457 0 0 0
7250 187 16 0.415 21.96798058375115 26.861035543225523 -8.15866390428722 0 0 0
7251 187 16 0.415 21.943288138285485 26.848884266646607 -8.135502926789274 0 0 0
6894 68 16 0.415 29.88961732139767 24.298069599885125 -6.150254763357574 0 0 0
7057 123 15 -0.83 30.444877157895682 27.42795171010481 -12.875727609615838 0 0 0
7058 123 16 0.415 29.940799352604554 27.01573316523968 -13.581665591394232 0 0 0
7059 123 16 0.415 29.965210960425242 27.009789544167354 -13.608046731593934 0 0 0
7147 153 15 -0.83 26.12889909135131 25.807381214946027 -6.506423370062795 0 0 0
7149 153 16 0.415 25.345597926030905 26.273219910050646 -6.8279903937474575 0 0 0
7339 217 15 -0.83 24.701007623515146 27.278919698621426 -13.017632182012886 0 0 0
7340 217 16 0.415 24.343726321071617 28.089439033268988 -12.65733899649079 0 0 0
7341 217 16 0.415 24.338575365048918 28.082133590815374 -12.620326804637708 0 0 0
7381 231 15 -0.83 31.698205899520904 31.03670379391409 -9.901050952335819 0 0 0
7382 231 16 0.415 30.803049046379417 31.260709538828777 -10.16848147813289 0 0 0
7383 231 16 0.415 30.798763683566836 31.24466754516433 -10.20014765491373 0 0 0
7391 234 16 0.415 32.13060246265253 25.866028392665946 -10.449907922034436 0 0 0
7392 234 16 0.415 32.12430644893425 25.8894942699024 -10.415600094484327 0 0 0
7559 290 16 0.415 28.036015437038397 24.468854708299858 -10.610781606190722 0 0 0
7560 290 16 0.415 28.00792092925173 24.481813681304445 -10.631692569681821 0 0 0
6893 68 16 0.415 29.90536250816145 24.277831275713304 -6.1269251184902815 0 0 0
7148 153 16 0.415 25.348353535101317 26.28056105505587 -6.791730686694257 0 0 0
6835 49 15 -0.83 24.089194926897463 18.38974586460395 -3.8644358909463232 0 0 0
6836 49 16 0.415 23.306174422929683 18.119464717814424 -3.395048931659184 0 0 0
6837 49 16 0.415 23.30730270081136 18.142907191169495 -3.357539678315696 0 0 0
7003 105 15 -0.83 17.818159276071448 20.579938404708596 -5.008931955148787 0 0 0
7004 105 16 0.415 17.597234163176193 19.692241674859186 -5.293594795085799 0 0 0
7005 105 16 0.415 17.616988735018854 19.68735323290868 -5.323914030490249 0 0 0
7265 192 16 0.415 18.921370208485918 24.02296321429447 -3.428698181079694 0 0 0
7266 192 16 0.415 18.890377724296123 24.031372388783307 -3.447818808879243 0 0 0
7000 104 15 -0.83 28.357879237071458 18.16372782638904 -3.3920930897900825 0 0 0
7001 104 16 0.415 27.793516952579278 17.444226339369663 -3.1257114981062806 0 0 0
7002 104 16 0.415 27.79024935464257 17.4478794666042 -3.0861681088840793 0 0 0
866 1 1 0.1115 15.931661584017279 26.590025418457774 1.807416890243818 0 0 0
946 1 2 0.24 23.560813399556807 31.42957583884376 1.7175730405843748 0 0 0
1852 1 1 -0.1765 17.247974207728316 27.079411702013587 1.8652444317113848 0 0 0
5171 1 4 0.1975 18.542016909094826 29.088338230704068 1.6591874529535353 0 0 0
6715 9 15 -0.83 21.400841887128024 29.554102498079722 -3.5811438734452805 0 0 0
6716 9 16 0.415 20.891224290263704 28.930467041918195 -4.096296015619503 0 0 0
6717 9 16 0.415 20.903330612759355 28.935544631161413 -4.1315945465985315 0 0 0
6775 29 15 -0.83 16.848062390692093 28.33671894551837 -5.03385157546232 0 0 0
6776 29 16 0.415 16.947084960456625 27.839275846003787 -5.840351915279039 0 0 0
6777 29 16 0.415 16.9853888401328 27.836667441076376 -5.845460548913881 0 0 0
7264 192 15 -0.83 19.53237088249257 24.72569300564578 -3.6389828072027437 0 0 0
6882 64 16 0.415 31.68707382909905 32.42319120497665 -5.704236450465885 0 0 0
6881 64 16 0.415 31.718673768197736 32.41299928212163 -5.721022165691451 0 0 0
6797 36 16 0.415 32.156854770475405 27.124999255296288 -4.97237382999246 0 0 0
7317 209 16 0.415 24.647752061482073 31.16473828474116 -3.84295587551201 0 0 0
7316 209 16 0.415 24.634463746718367 31.168378297065708 -3.877867275352922 0 0 0
7315 209 15 -0.83 25.107070778739732 30.512013985245893 -4.388807515121394 0 0 0
806 1 4 -0.255 24.948642116228946 27.719821436783302 1.5789492288452798 0 0 0
950 1 12 0.34 24.664757373016215 28.902110073280426 1.6465140795297344 0 0 0
953 1 7 -0.297 25.516444618196957 29.83917385610859 1.1762832137672092 0 0 0
954 1 9 0.31 25.639829210487257 30.523743253680657 1.882500862406385 0 0 0
6796 36 15 -0.83 32.10794002931771 28.00838678795175 -4.606726714190076 0 0 0
6798 36 16 0.415 32.14458595063132 27.128485225710115 -5.005327050833306 0 0 0
7224 178 16 0.415 28.168388944633797 29.5791863598612 -5.083757634228003 0 0 0
6892 68 15 -0.83 30.204917352377397 24.88553213984707 -5.444284604012428 0 0 0
7222 178 15 -0.83 28.51988680048593 29.54231720566452 -5.984156169292029 0 0 0
7223 178 16 0.415 28.17494863245302 29.54434809716728 -5.090961303296036 0 0 0
1 1 2 0.009 22.623798243949082 20.057452745716233 6.766856342731973 0 0 0
12 1 1 -0.456 23.772529826471274 21.302846807718442 8.114140697751303 0 0 0
13 1 1 -0.031 22.587429914039703 20.830868303675004 7.528297204299449 0 0 0
14 1 1 -0.456 21.35035902705953 21.359470231022 7.929780250566237 0 0 0
15 1 1 0.16 23.70600241438816 22.279545569556955 9.108887931758442 0 0 0
16 1 1 -0.425 22.476209290809617 22.816358812884392 9.491741820073955 0 0 0
17 1 1 0.16 21.282456684915385 22.345445906304597 8.918977479679198 0 0 0
18 1 2 0.04 20.438013163127646 20.998943335862055 7.464141236512026 0 0 0
19 1 11 -0.575 20.028125754090198 22.964669677704528 9.140974411021729 0 0 0
20 1 6 0.017 19.350635826730908 22.84178305126958 8.39891380602012 0 0 0
21 1 1 -0.031 15.770155110994267 23.53742586095677 5.657439888345862 0 0 0
24 1 2 0.24 17.24580396213967 22.791057387872325 9.382761574668953 0 0 0
38 1 2 0.24 16.59713615030049 16.899376261711065 9.669176103206285 0 0 0
782 1 1 -0.031 23.256078068817136 22.200382461744397 2.6868737233375994 0 0 0
791 1 2 0.247 22.461128871412427 23.27949506479592 5.841452922391096 0 0 0
816 1 1 -0.456 21.95026661012166 22.705280027955563 2.5745367653596842 0 0 0
817 1 1 0.16 21.650950539498446 23.972516570037612 3.0875394357875785 0 0 0
832 1 1 -0.456 17.10626155827251 23.73179525353035 6.011520544458799 0 0 0
836 1 2 0.04 17.645279825286366 22.869968087929685 6.381363886632336 0 0 0
853 1 1 0.1115 17.23800551091393 23.88151771044771 9.446166078670089 0 0 0
870 1 2 0.24 16.485656821507785 23.39800870195309 2.883077833437392 0 0 0
871 1 10 0.473 19.15867213330393 23.914664462852844 2.863577597765893 0 0 0
880 1 1 0.151 22.51218638583449 24.090588524515493 6.574153208458217 0 0 0
889 1 4 0.285 19.93369351856423 23.13956686536386 5.972136694826889 0 0 0
1785 1 2 0.009 23.49697588927262 21.22481107139329 2.2728254989792562 0 0 0
1790 1 2 0.04 21.20360109973101 22.110175669033648 2.059370291969669 0 0 0
1855 1 4 0.1975 18.99880334128467 22.71620982861655 3.039961879613446 0 0 0
66 1 2 0.04 24.725894350958338 20.88762384115344 7.8082267034920685 0 0 0
67 1 11 -0.575 24.85825944182492 22.75094800195497 9.762303302505583 0 0 0
68 1 11 -0.575 29.879142916543227 19.063288861119567 4.220892269062019 0 0 0
69 1 6 0.017 29.484820495789393 18.15168978675377 4.026590495349553 0 0 0
70 1 1 -0.456 27.744713470741633 22.7799213200149 7.9217825233773995 0 0 0
73 1 1 0.16 28.760533197196636 21.835213090232536 7.740419192001413 0 0 0
74 1 1 -0.425 30.068219355128896 22.276471976359083 7.526185923629658 0 0 0
75 1 1 0.16 30.345649408343142 23.637747645298447 7.407979243191089 0 0 0
76 1 2 0.04 26.731733045436787 22.452645719331148 8.09237233651958 0 0 0
79 1 11 -0.575 31.605632194039494 24.030069963108392 6.914852736224763 0 0 0
80 1 11 -0.575 28.461125632545563 20.45543379817966 7.665265862761721 0 0 0
81 1 2 0.075 30.864516813579517 21.574716527506286 7.344275613485004 0 0 0
82 1 6 0.017 29.059711155222455 19.908315091388673 7.058717511627192 0 0 0
85 1 10 0.473 27.5133881064574 19.778590649901954 8.412912804539815 0 0 0
86 1 4 0.1975 26.876167531111367 20.292174264138556 9.319949819652182 0 0 0
88 1 1 -0.099 28.603583773605763 23.933663140842338 3.9221438134240825 0 0 0
89 1 1 0.1115 28.421274733116203 22.554460609300634 3.7127140699986643 0 0 0
90 1 1 -0.1765 30.862939728085443 23.4898496555215 4.685384059934959 0 0 0
91 1 1 0.101 30.708044031412058 22.113233430382422 4.3869418040227375 0 0 0
92 1 1 -0.1765 29.453548259352498 21.611495543946393 3.9559759242036754 0 0 0
94 1 2 0.24 27.43437418122089 22.22728537331889 3.3898186252443514 0 0 0
95 1 2 0.209 31.532579250621502 21.439719361883522 4.598016607316407 0 0 0
96 1 10 0.473 31.96105660994413 23.972640051327758 5.582779042948671 0 0 0
97 1 10 0.473 29.098385179993972 20.130997876997743 3.791999456122229 0 0 0
100 1 4 0.1975 28.021414730179412 19.82931714074631 3.305616108178122 0 0 0
783 1 1 -0.456 24.24205091180271 22.947338052979994 3.353494090826209 0 0 0
786 1 2 0.04 25.225855371876587 22.518665422375093 3.4921554022002277 0 0 0
793 1 4 0.285 25.32030644423629 23.042024256783524 6.144181768230028 0 0 0
926 1 6 0.017 25.544151222296826 23.24334379964153 9.202236993484927 0 0 0
2762 1 1 0.1115 27.458487411256122 17.72441078770746 6.913398696191395 0 0 0
2763 1 1 -0.099 27.32934484719964 16.32587110445622 6.75132055186171 0 0 0
2765 1 1 -0.1765 27.518012072978028 18.291099022960612 8.200590210402147 0 0 0
2766 1 1 0.101 27.563649955213513 17.448877305636227 9.319337670280678 0 0 0
2767 1 1 -0.1765 27.61731432464394 16.048215090584577 9.169069493872264 0 0 0
2768 1 2 0.24 27.439880729142835 18.379034504953925 6.042307204805839 0 0 0
2771 1 12 0.34 27.026773530888157 15.787963385037699 5.374467841839671 0 0 0
2772 1 4 -0.255 26.86490984687622 16.531887286236547 4.423268271675147 0 0 0
2776 1 4 0.285 31.746502456259964 16.424663342592268 6.030292370481512 0 0 0
3479 1 1 -0.456 32.183600269960394 18.527513100357965 3.72028917020565 0 0 0
3481 1 1 -0.425 31.591498028692826 19.347131858503886 5.912025583498609 0 0 0
3482 1 1 0.16 31.220666558967746 18.99471276937416 4.617650766528899 0 0 0
3485 1 2 0.04 31.883232416280592 18.193722869295293 2.731376638475644 0 0 0
3486 1 2 0.075 30.8319502159335 19.670637546126734 6.6061696686315425 0 0 0
5975 1 4 -0.255 30.590254923254562 17.750251134673906 8.60538282230355 0 0 0
5992 1 10 0.457 32.24393134670196 15.897944842973006 7.014615348665044 0 0 0
6100 1 12 0.34 30.901058317891124 18.40066307168568 9.58130951424299 0 0 0
6102 1 7 -0.297 31.05035179828842 19.73884608976726 9.513437805602154 0 0 0
6103 1 9 0.31 30.895451493452782 19.97303532521457 8.570360423753943 0 0 0
784 1 1 -0.425 22.644953993920662 24.727478579464805 3.703209664823 0 0 0
785 1 1 0.16 23.926981094892817 24.204958771037294 3.877959145833088 0 0 0
788 1 2 0.075 22.38514199571433 25.664438148391735 4.1656965923472224 0 0 0
790 1 1 -0.139 23.764389964311228 24.595367832409266 6.941477743722219 0 0 0
812 1 1 0.16 16.025839362663312 30.28709790847562 9.586059512224546 0 0 0
814 1 11 -0.575 16.217027769490624 28.887566142339264 9.575774603213109 0 0 0
818 1 11 -0.575 20.375036007573563 24.551872835140255 2.9955634480175264 0 0 0
819 1 6 0.017 20.371624701544555 25.560941065355795 2.9460980229373464 0 0 0
834 1 1 -0.425 16.91990161021155 26.103182916643593 5.555402823536455 0 0 0
835 1 1 0.16 17.691650987798358 25.009813834050778 5.9687181777998095 0 0 0
837 1 11 -0.575 19.027551764431447 25.221430112546813 6.384859039374191 0 0 0
838 1 2 0.075 17.3705453814589 27.087587345429544 5.4842812685923645 0 0 0
839 1 6 0.017 19.280564709543746 26.18127964153061 6.585951158629443 0 0 0
854 1 1 -0.099 16.08920637292159 24.621350288075842 9.087417395249751 0 0 0
855 1 1 0.1115 16.11370415340019 26.033984804184467 9.13116375816219 0 0 0
856 1 1 -0.1765 18.396114236138136 24.549992659638708 9.873465594598411 0 0 0
858 1 1 -0.1765 17.279756125564507 26.703301681887975 9.539071991160446 0 0 0
862 1 10 0.473 17.41486757710981 28.199541505816935 9.501161993173946 0 0 0
864 1 4 0.1975 18.508981138247204 28.734950455431296 9.402164801318435 0 0 0
868 1 1 0.1115 16.707391487309497 24.399330130198347 2.5168663502492254 0 0 0
869 1 1 -0.1765 18.041211809935554 24.84498040592657 2.4689901673771972 0 0 0
879 1 1 0.151 23.864572496405135 25.557372646621214 7.959635394338892 0 0 0
881 1 1 -0.139 22.694205257857362 26.05521380544597 8.574219808301939 0 0 0
882 1 1 0.151 21.442507145875897 25.722330027069816 7.999358085801727 0 0 0
883 1 1 -0.139 21.34712008836582 24.74019758000321 6.993775503896057 0 0 0
885 1 2 0.247 20.53442418511915 26.187819027090757 8.361786229219893 0 0 0
886 1 10 0.457 22.78853326056112 26.920188395674906 9.815762794680696 0 0 0
887 1 10 0.457 20.038858223810976 24.265863509824033 6.432614492262283 0 0 0
904 1 1 -0.456 23.57931850049246 28.673546176325132 7.200000747638144 0 0 0
905 1 1 0.16 23.000903060646696 30.436973635128986 9.319236774357998 0 0 0
906 1 1 -0.425 21.99191685659253 30.059029327786117 8.408507391037176 0 0 0
907 1 1 0.16 22.277837773750058 29.17279448125457 7.3588793497982845 0 0 0
908 1 2 0.04 23.798076593043522 27.942724165701335 6.42767952011842 0 0 0
909 1 11 -0.575 21.221559595663997 28.58000817932202 6.629375698186778 0 0 0
911 1 2 0.075 20.976079094282362 30.413709401668694 8.526530727709128 0 0 0
912 1 6 0.017 20.4812230180889 28.196920415773484 7.203162655835511 0 0 0
939 1 1 0.1115 22.938020298969796 28.523942302041473 3.423152559643106 0 0 0
940 1 1 -0.099 23.528873974959787 29.400726983113284 2.493151647817893 0 0 0
941 1 1 0.1115 23.085067803766027 30.737440355566598 2.4158782498989617 0 0 0
942 1 1 -0.1765 21.988032752822217 29.008812615652918 4.341810686949703 0 0 0
943 1 1 0.101 21.651288545147636 30.369803077397037 4.3360807087015205 0 0 0
944 1 1 -0.1765 22.169224914083376 31.241111408802155 3.3653331489652585 0 0 0
945 1 2 0.24 23.269538387716963 27.48527233294059 3.4601740165612918 0 0 0
947 1 2 0.209 21.023151171776718 30.74847030875935 5.130559606362603 0 0 0
948 1 10 0.473 21.303803370529693 28.109037217184564 5.3276285715123315 0 0 0
951 1 4 0.1975 20.558915621491966 27.231191984967097 4.929953543860509 0 0 0
1811 1 2 0.075 17.975653732674864 29.5654410793691 4.959216698476561 0 0 0
1853 1 1 0.101 18.307201460305816 26.180455837400807 2.0909797470502527 0 0 0
1854 1 2 0.209 19.332362847928223 26.54877469625996 2.0856621837608498 0 0 0
5027 1 11 -0.575 19.06036093634965 31.80514901608593 5.991565344898332 0 0 0
5028 1 6 0.017 19.734289959212113 31.051697994633376 6.031876037337934 0 0 0
5037 1 2 0.247 16.729220307225148 32.31294211504913 7.292752434712928 0 0 0
5142 1 1 -0.456 16.354590716037166 31.58711863558358 2.7446123313621573 0 0 0
5143 1 1 0.16 18.15251070838596 31.719549862961195 4.901503498440486 0 0 0
5144 1 1 -0.425 17.646840150357427 30.481429825092047 4.477625349114141 0 0 0
5145 1 1 0.16 16.786171922120733 30.420642257217224 3.369994137554057 0 0 0
5149 1 11 -0.575 16.534406481566435 29.19277168524027 2.738598516999466 0 0 0
5170 1 10 0.473 17.479830200970486 28.560635226151533 1.9542886721451658 0 0 0
65 1 2 0.04 31.558967980089097 25.57479437187474 9.245773201222615 0 0 0
71 1 1 -0.031 28.01713498124704 24.152902492112368 7.853766172707415 0 0 0
72 1 1 -0.456 29.323234054677876 24.57771507837172 7.586533815117254 0 0 0
77 1 2 0.009 27.221543616580444 24.879243204107357 7.991864407877696 0 0 0
78 1 2 0.04 29.535926099792743 25.638032895737634 7.488975874017961 0 0 0