LAMMPS data file via write_data, version 29 Oct 2020, timestep = 2550

14781 atoms
16 atom types
12582 bonds
19 bond types
14175 angles
24 angle types
20158 dihedrals
42 dihedral types

15.651300371696367 49.3486996283035 xlo xhi
15.651300371696367 49.3486996283035 ylo yhi
-37.42485976241444 105.39442276241431 zlo zhi

Masses

1 12.01
2 1.008
3 12.01
4 16
5 14.01
6 1.008
7 16
8 14.01
9 1.008
10 12.01
11 14.01
12 12.01
13 1.008
14 16
15 16
16 1.008

Pair Coeffs # lj/cut/coul/long/omp

1 0.086 3.39967
2 0.015 2.59964
3 0.086 3.39967
4 0.21 2.95992
5 0.17 3.25
6 0.0157 1.06908
7 0.2104 3.06647
8 0.17 3.25
9 0 0
10 0.086 3.39967
11 0.17 3.25
12 0.086 3.39967
13 0.0157 1.06908
14 0.2104 3.06647
15 0.1521 3.157
16 0.015 2.058

Atoms # full

10744 2215 15 -0.83 21.74057268178149 18.141457779342346 -30.813349767631987 0 0 0
10745 2215 16 0.415 20.91945247504674 18.628774419574818 -30.74614918499667 0 0 0
10746 2215 16 0.415 21.470806923720968 17.239047259487318 -30.98397655380455 0 0 0
10756 1842 15 -0.83 17.144727486146124 17.60733546196092 -30.354148222710545 0 0 0
10768 2699 15 -0.83 24.01199874286824 16.291249930780843 -33.87548505507235 0 0 0
10780 2443 15 -0.83 21.557474736035388 18.628539275206293 -33.862238724969174 0 0 0
10781 2443 16 0.415 21.955911469419718 18.797172224517354 -33.008398669125064 0 0 0
10783 2484 15 -0.83 16.674843906763797 20.669521811193444 -29.430083462340423 0 0 0
10790 1603 16 0.415 19.902016472029334 24.632759666625997 -34.41225685846292 0 0 0
10791 1603 16 0.415 18.782989608149464 23.76022537511251 -33.88466053989169 0 0 0
10801 1786 15 -0.83 21.690027132898162 22.874279218899513 -35.456551286980215 0 0 0
10802 1786 16 0.415 22.32614268410123 22.690070084342 -36.14767772461195 0 0 0
10803 1786 16 0.415 21.91226893482372 23.75490840050752 -35.154338483505406 0 0 0
10758 1842 16 0.415 17.79543725205971 17.931562271670423 -30.976792195118573 0 0 0
10782 2443 16 0.415 20.743506255471484 18.16711340591615 -33.66031472297898 0 0 0
10789 1603 15 -0.83 19.69239914462407 24.008055336140245 -33.717968075162176 0 0 0
10741 1933 15 -0.83 18.996897596657448 20.00657583985464 -31.966458601742815 0 0 0
10742 1933 16 0.415 18.260154297972008 20.487392457987276 -31.58928955953013 0 0 0
10885 1887 15 -0.83 18.055242139999578 23.06875353563582 -29.869207819702865 0 0 0
10886 1887 16 0.415 18.69476808733862 22.94442353327766 -30.570478312778228 0 0 0
11122 2386 15 -0.83 21.384242541047207 22.129129477946503 -32.30698386117521 0 0 0
10788 1552 16 0.415 22.009540356091144 26.5144567113101 -35.495720274422986 0 0 0
13966 1580 15 -0.83 16.452131784491456 19.470828645506852 -26.01360302080829 1 0 0
10743 1933 16 0.415 19.62827573703297 20.684716399270215 -32.20670467132528 0 0 0
10887 1887 16 0.415 17.707263023629057 23.948471037373906 -30.01494519357778 0 0 0
6928 448 15 -0.83 19.318785194008342 21.7063466070857 -36.98194802563194 0 0 1
11124 2386 16 0.415 21.420833670187466 21.968662842894197 -33.24992784905632 0 0 0
10757 1842 16 0.415 17.016571612759364 18.331851760880074 -29.74187055712422 0 0 0
10770 2699 16 0.415 23.45750046076796 17.071479314770418 -33.87312799240816 0 0 0
7503 1353 16 0.415 24.153988819923345 30.976449031590874 -36.01175023613422 0 0 1
10796 1640 16 0.415 16.705437817615657 19.318114191053496 -32.287904701833135 0 0 0
11882 2348 16 0.415 32.350942984670056 16.122003765489932 -20.22087942116706 0 0 0
6904 49 15 -0.83 17.09460860695862 23.779158062745882 -35.42734643427747 0 0 1
10784 2484 16 0.415 17.48564687963203 20.968605400605487 -29.01852619427076 0 0 0
12171 2946 16 0.415 24.42128333791926 27.57076314480996 -22.485215094954135 0 0 0
11123 2386 16 0.415 21.507403050780812 23.07432748807716 -32.21943934202172 0 0 0
10786 1552 15 -0.83 21.4240671133347 26.066613288274223 -36.106366805432636 0 0 0
11090 2704 16 0.415 23.272439045089484 25.098005568840552 -20.987334693852716 0 0 0
12724 2131 15 -0.83 32.15892731807568 15.782463232920847 -24.032666846714914 0 1 0
8022 1219 16 0.415 31.613491590477064 26.32793234761065 -36.377349472388644 0 0 1
10795 1640 15 -0.83 15.96501723326512 19.909266958720224 -32.15171511027785 0 0 0
10785 2484 16 0.415 16.2654867376024 21.46843047759572 -29.76235366588816 0 0 0
12142 1597 15 -0.83 29.876584395736923 32.44960263291176 -31.835271816219603 0 0 0
11875 2230 15 -0.83 27.330055218724283 25.855812684815604 -20.41703606751475 0 0 0
10769 2699 16 0.415 24.751002265066404 16.520326334566796 -33.311898891905706 0 0 0
11822 2088 16 0.415 24.426508763880427 20.14395267996471 -30.775170870378826 0 0 0
6905 49 16 0.415 16.964139683569428 23.71165231560345 -36.37320722959352 0 0 1
10773 2917 16 0.415 23.174097072585173 20.71212104880143 -33.35558881215924 0 0 0
14196 1704 16 0.415 17.63698039034332 30.875855338993663 -35.17987482114422 1 0 0
6963 1300 16 0.415 27.801129077366337 17.323462172069743 -36.720239080238656 0 1 1
6961 1300 15 -0.83 27.052227778894174 17.844903388386605 -36.43131392049422 0 0 1
12194 2985 16 0.415 24.901477408391145 30.559653493964095 -21.165967936772436 0 0 0
10771 2917 15 -0.83 24.110877846305527 20.7376109127039 -33.160591699589055 0 0 0
10772 2917 16 0.415 24.53539514659422 20.707034801423767 -34.017960887823946 0 0 0
7999 237 15 -0.83 31.84175871210503 21.285649998574073 -35.34472875923721 0 0 1
11806 2634 15 -0.83 29.00902357384089 17.95066824657192 -30.29757950037617 0 0 0
11807 2634 16 0.415 29.347970852896424 17.1223931695497 -29.958010743082326 0 0 0
11808 2634 16 0.415 28.49634975561311 18.31420083392926 -29.575608983303802 0 0 0
13305 1960 16 0.415 32.18558070790877 23.923038501937953 -25.766156466062245 0 0 0
11815 2409 15 -0.83 26.928810949648334 20.885619965899508 -31.455715253690407 0 0 0
11816 2409 16 0.415 26.82499862428947 20.22657889156162 -32.142096852638076 0 0 0
11817 2409 16 0.415 26.369805400502642 21.611349764872816 -31.73331350168415 0 0 0
11818 2724 15 -0.83 27.275879761512737 19.869577712624917 -34.511658116103604 0 0 0
11819 2724 16 0.415 26.549228311039155 19.265048632573443 -34.3608142632007 0 0 0
11820 2724 16 0.415 27.825999881913674 19.42704035385307 -35.158001879832064 0 0 0
11839 2328 15 -0.83 31.088357881870664 22.10363382606272 -31.217397135706772 0 0 0
11841 2328 16 0.415 31.067795283313263 21.64922837978517 -30.375183029653325 0 0 0
11851 2478 15 -0.83 23.85454680868854 22.665399279801296 -30.525304278224937 0 0 0
11852 2478 16 0.415 23.099869859819147 22.082372170463643 -30.443000726062383 0 0 0
11857 2860 15 -0.83 30.091114517134166 19.535142219235603 -32.74420454030777 0 0 0
11858 2860 16 0.415 30.253781563118483 18.68674288599207 -32.33190633388763 0 0 0
11859 2860 16 0.415 29.159732307348715 19.699169820478623 -32.59637375472947 0 0 0
11867 2339 16 0.415 28.72587345003841 21.966581485750265 -34.279147125339776 0 0 0
11853 2478 16 0.415 24.398409233775702 22.462878940446075 -29.764100687984243 0 0 0
11866 2339 15 -0.83 28.574746876573634 22.909817049654166 -34.3399681426789 0 0 0
11840 2328 16 0.415 30.899025705501927 21.422216926059107 -31.862421294044957 0 0 0
11863 2286 15 -0.83 31.506419465926797 16.64549847615949 -31.337765450496548 0 0 0
11812 1849 15 -0.83 29.088002191810926 21.199470246912853 -37.016197576535326 0 0 0
11105 1745 16 0.415 15.741182823602614 24.43021730013891 -25.50567928634213 1 0 0
11868 2339 16 0.415 27.943854652970558 23.097094277759123 -33.64488969563096 0 0 0
11823 2088 16 0.415 24.000976283297604 18.954583644290075 -29.940773731183192 0 1 0
11821 2088 15 -0.83 24.043974276251816 19.910748406718504 -29.92928974235426 0 0 0
14222 2637 16 0.415 16.33498200084103 31.943818556955236 -26.91494477493451 1 0 0
12485 1936 16 0.415 25.97005071479673 31.604377946346116 -27.205791070709484 0 0 0
11044 2631 15 -0.83 16.77788352173075 26.2111063589738 -29.182321434219666 0 0 0
12207 2673 16 0.415 26.464448626974836 30.928242754208252 -23.710492115868792 0 0 0
12106 2615 15 -0.83 29.46281447257448 24.89273171891011 -31.723414882919577 0 0 0
12107 2615 16 0.415 28.832979538190884 24.96765812654515 -31.006528686361907 0 0 0
12102 2655 16 0.415 30.74402602695754 26.36806374796897 -27.564518421386598 0 0 0
10755 1804 16 0.415 25.36602629907448 21.510283517256447 -35.59710066315915 0 0 0
10766 2210 16 0.415 26.80680386090822 17.361695401848973 -32.37247602708062 0 0 0
13026 2555 16 0.415 32.233953500477774 24.69155792442415 -22.212533868689995 0 0 0
12961 1777 15 -0.83 32.188367745245124 19.589329988411674 -30.24714640873819 0 0 0
11805 1692 16 0.415 27.78025831783151 21.38185217106603 -29.10822693955126 0 0 0
12963 1777 16 0.415 31.747847303627726 18.796581907585765 -30.553290187079195 0 0 0
10765 2210 15 -0.83 26.23550110707086 17.861900160011196 -31.78968961452346 0 0 0
8038 625 15 -0.83 23.496955005123674 19.912368691423232 -36.03314477625164 0 0 1
10883 2668 16 0.415 23.595095273345216 21.82832781052006 -19.82683400759837 0 0 0
11844 2627 16 0.415 31.611445970530237 16.522157832740746 -35.20574872655105 0 0 0
11809 1729 15 -0.83 28.05341257905478 15.896114575600429 -33.54579157581339 0 0 0
10754 1804 16 0.415 26.126860843915367 22.691011376772593 -35.03238166546762 0 0 0
10761 2505 16 0.415 23.57425111911416 25.82000306862624 -31.509097995905073 0 0 0
12108 2615 16 0.415 29.78873098535436 23.994712521262432 -31.663651897693786 0 0 0
13235 2107 16 0.415 29.457255161116827 30.027839211235488 -25.76259822142706 0 0 0
11804 1692 16 0.415 27.344447027582973 22.606096403409268 -29.884879831216793 0 0 0
12215 2380 16 0.415 26.25047029419084 26.62630250402407 -24.19679314456604 0 0 0
6906 49 16 0.415 16.780015792934382 24.655058245654494 -35.20360103306788 0 0 1
10787 1552 16 0.415 21.896198669365866 26.071783237976188 -36.93901131805302 0 0 0
11051 2289 16 0.415 16.83912240451014 24.686700281968697 -32.720780037027026 0 0 0
10777 2664 15 -0.83 20.506330921557655 25.25036738061329 -31.17754414426371 0 0 0
10778 2664 16 0.415 20.395673423278048 25.921538462786224 -30.50410811239312 0 0 0
10779 2664 16 0.415 20.527683064477834 25.73787896057582 -32.00101744943228 0 0 0
6919 968 15 -0.83 18.711728806845738 26.533304607428935 -34.735619819930996 0 0 1
6921 968 16 0.415 17.871199048259935 26.988790089333023 -34.687927768083604 0 0 1
8030 592 16 0.415 27.55746280506459 25.95814478547357 -36.30130426027475 0 0 1
6920 968 16 0.415 18.838696541291444 26.360958840340366 -35.66857638606385 0 0 1
11073 2508 16 0.415 18.174309838502666 31.04874736741832 -29.87984776948995 0 0 0
11054 1861 16 0.415 16.950418146839745 29.635688202096308 -26.039798899321667 0 0 0
11016 2057 16 0.415 18.81327785425332 31.673091583315266 -32.46872082610208 0 0 0
10798 1681 15 -0.83 24.425851109848296 25.265422529436513 -36.177173182911346 0 0 0
12732 2784 16 0.415 28.04911140794271 16.82580632457831 -19.65547480606841 0 1 0
10799 1681 16 0.415 24.486960015025527 25.92568462344346 -35.486846097508554 0 0 0
12153 2400 16 0.415 22.088718949887486 29.854553571185797 -33.69513313727091 0 0 0
11835 1718 16 0.415 30.254110799338743 17.257351239372348 -24.34657586355667 0 0 0
11014 2057 15 -0.83 18.413842343362838 31.06033354623018 -33.086143388138304 0 0 0
11023 1654 15 -0.83 21.022001447697093 28.03885305685684 -33.4467056003535 0 0 0
11024 1654 16 0.415 20.27971069741519 27.59737556647736 -33.85942078297432 0 0 0
11025 1654 16 0.415 20.648428600382505 28.46739025806985 -32.67662066535141 0 0 0
11029 2803 15 -0.83 21.669004861276964 29.259330182449116 -37.229515456243114 0 0 0
6954 1094 16 0.415 17.917512371327636 18.499636788500677 -37.27120704283851 0 0 1
11012 2830 16 0.415 16.62571968955774 29.935234282278152 -29.21694560713278 0 0 0
11032 2915 15 -0.83 20.43534544001853 30.436025099214117 -30.591176262219946 0 0 0
11033 2915 16 0.415 21.268102874421817 30.904737559746284 -30.53590025621753 0 0 0
11034 2915 16 0.415 20.654398363863855 29.530719319672638 -30.37056564477108 0 0 0
11035 2900 15 -0.83 16.873555713758908 28.055034876670433 -36.558154737229884 0 0 0
6930 448 16 0.415 20.027043527635712 21.790275216378618 -36.34354542911262 0 0 1
11041 1588 15 -0.83 19.977460397208894 32.195182523951566 -37.304761061000775 0 0 0
12924 2590 16 0.415 32.351534343409675 24.183621493217053 -32.074372470955474 0 0 0
11883 2348 16 0.415 32.30504083204746 15.744483781893129 -21.68623494975334 0 0 0
14194 1704 15 -0.83 16.787834158770583 30.99038935977642 -35.606564961424304 1 0 0
11810 1729 16 0.415 27.72777696229823 15.782197424717497 -34.438661161001626 0 0 0
10877 1601 16 0.415 18.416539972782008 23.71006557560716 -24.017929597802752 0 0 0
8001 237 16 0.415 31.140957302972883 21.158318586006622 -35.98417843944661 0 0 1
11068 2274 15 -0.83 22.07970967598989 27.942986979075247 -30.59495536376183 0 0 0
11069 2274 16 0.415 22.876571909983188 28.472473578400585 -30.565184026467666 0 0 0
11070 2274 16 0.415 22.244168424735633 27.22712417892586 -29.981175593553633 0 0 0
11108 2120 16 0.415 17.818573189393042 27.790430881086355 -32.14908092932505 0 0 0
12151 2400 15 -0.83 22.656624391145655 30.408908898585963 -34.23030165416968 0 0 0
11050 2289 15 -0.83 17.284801047843168 25.356331373512653 -32.20193848373422 0 0 0
11095 2489 15 -0.83 16.510323069432435 31.649220881798357 -21.975844283836043 0 0 0
11107 2120 15 -0.83 18.6273188595491 28.159005014186654 -31.793672183210706 0 0 0
11109 2120 16 0.415 18.366613370968853 28.550369510546727 -30.959946623289767 0 0 0
8000 237 16 0.415 31.52746200752346 20.847592686208646 -34.55380832351215 0 0 1
12152 2400 16 0.415 22.0954301281868 31.134719994188078 -34.503231974277746 0 0 0
10800 1681 16 0.415 24.675141148060426 24.4465392599661 -35.7487849384763 0 0 0
11015 2057 16 0.415 18.628022786695844 30.194864469995014 -32.73783078295805 0 0 0
11052 2289 16 0.415 18.170135756599322 25.39081515035923 -32.564188607773545 0 0 0
12193 2985 15 -0.83 24.9204476928455 30.97258382903795 -22.02931055088794 0 0 0
12164 2363 16 0.415 24.032637138444912 30.37542090987206 -32.100336977275454 0 0 0
10747 1571 15 -0.83 19.395168338736063 25.61098348468348 -28.092486861376756 0 0 0
10749 1571 16 0.415 18.70671586330444 24.94610176009689 -28.106523646406103 0 0 0
12170 2946 16 0.415 25.342571893223163 26.857572957603043 -21.51852883503336 0 0 0
11911 1894 15 -0.83 29.90231766903277 18.89757735265897 -20.676800327491776 0 0 0
8293 44 15 -0.83 29.466581447184485 29.684512200088783 -35.781380426615385 0 0 1
13233 2561 16 0.415 30.402057651032283 29.970685351001286 -29.063975075063592 0 0 0
10763 1566 16 0.415 25.759505411497145 24.743341702673884 -32.96118788646126 0 0 0
10824 1648 16 0.415 20.3056707128073 26.94640183710282 -20.22300607844137 0 0 0
10760 2505 16 0.415 22.478205513230574 26.396570985743107 -32.37981522884452 0 0 0
10759 2505 15 -0.83 23.236427682640514 25.81286478261237 -32.40467385736461 0 0 0
6962 1300 16 0.415 26.317742142977597 17.51864912403122 -36.95123778270368 0 0 1
13968 1580 16 0.415 16.097194493804317 20.322834518561134 -25.759955049385592 1 0 0
11856 1664 16 0.415 29.660826546591426 26.06505318582517 -34.9636657512898 0 0 0
11854 1664 15 -0.83 29.006001388481305 26.30118311037752 -34.30664331942001 0 0 0
11855 1664 16 0.415 29.43390318020128 26.127663594784092 -33.46817898518341 0 0 0
10762 1566 15 -0.83 25.783031081231915 23.798406487243422 -32.810271511778176 0 0 0
11065 2232 15 -0.83 24.133541916135357 27.841841743948752 -34.74004047496926 0 0 0
12165 2363 16 0.415 25.542437683834763 30.374369491891603 -31.988997980746507 0 0 0
11018 1751 16 0.415 19.81933815947417 32.16247240839915 -34.49913105064492 0 0 0
11106 1745 16 0.415 16.14231498138312 25.654385052912 -26.30091579337996 0 0 0
12389 2932 16 0.415 27.285744472769125 32.09482935378454 -33.45275953037835 0 0 0
12388 2932 15 -0.83 26.871284750607753 32.29876970478861 -32.61439009363099 0 0 0
12104 1964 16 0.415 30.98865031422983 26.223654196338188 -30.749402925074772 0 0 0
11067 2232 16 0.415 24.079228861511204 28.777113155952318 -34.54370089587386 0 0 0
11066 2232 16 0.415 24.185930223728757 27.419300912992814 -33.88275025682046 0 0 0
7501 1353 15 -0.83 24.73405163385128 31.151377377758205 -36.75280284699419 0 0 1
12163 2363 15 -0.83 24.78358109564206 29.7910070396587 -31.99653219939666 0 0 0
12174 2316 16 0.415 28.032445498691168 28.204655927215864 -22.040061483788396 0 0 0
12158 1920 16 0.415 29.692002928753862 27.87743278102093 -32.521304045850904 0 0 0
11060 2814 16 0.415 27.01265639964387 27.32896931151969 -32.580584413785715 0 0 0
11061 2814 16 0.415 25.622938651533097 27.79655112067162 -32.20382602664423 0 0 0
11059 2814 15 -0.83 26.210472777778236 27.043301881026085 -32.143403288708136 0 0 0
10740 1712 16 0.415 17.615889704257857 16.91898806998229 -35.00659486452531 0 0 0
12139 2246 15 -0.83 26.662521581366125 28.39698049851761 -36.18696419754869 0 0 0
12140 2246 16 0.415 26.15007743484505 27.68713252336497 -35.79999048585696 0 0 0
12141 2246 16 0.415 26.05335098628544 28.837235569644143 -36.779685351466306 0 0 0
12145 1670 15 -0.83 28.688763295721092 27.204709686226057 -29.64885299019061 0 0 0
12146 1670 16 0.415 28.594780922587493 28.113654614613957 -29.933840741516242 0 0 0
12147 1670 16 0.415 28.514081337613966 27.228900243282318 -28.708038116843703 0 0 0
12160 2186 15 -0.83 26.65644601637684 24.85470814719743 -30.080852009090496 0 0 0
11055 1861 16 0.415 17.6454028294391 28.711749199707523 -27.017156582712325 0 0 0
12157 1920 15 -0.83 28.910762691971605 28.43023607121232 -32.538734669528324 0 0 0
11950 2496 15 -0.83 26.14079509641749 20.880080164743354 -20.715670827585814 0 0 0
12159 1920 16 0.415 28.818134256589126 28.685939698546587 -33.45648591091505 0 0 0
12169 2946 15 -0.83 24.423202880495893 27.08193119343478 -21.662250046933 0 0 0
12103 1964 15 -0.83 31.737044474490467 26.715649746505868 -30.411648058472025 0 0 0
12105 1964 16 0.415 31.381981084814655 27.5798914345328 -30.203686307495975 0 0 0
12181 2956 15 -0.83 28.265882187797185 30.29365994173923 -29.724024750971317 0 0 0
10764 1566 16 0.415 25.04795524175987 23.631211383798412 -32.22040620941319 0 0 0
8295 44 16 0.415 28.536301684559177 29.521578172104686 -35.93714912430713 0 0 1
13231 2561 15 -0.83 31.327444869335764 29.78429466115067 -29.22255894746242 0 0 0
11097 2489 16 0.415 16.16128663504017 30.889205788795348 -21.510245252136265 0 0 0
12143 1597 16 0.415 30.711821252488622 31.98526423368139 -31.78049241288443 0 0 0
13303 1960 15 -0.83 32.177483155016304 24.07875146073369 -24.821741544789745 0 0 0
12476 2793 16 0.415 31.215212618769296 31.93935222941882 -25.963896492387295 0 0 0
13232 2561 16 0.415 31.636415945368686 29.391310564417033 -28.406267201448554 0 0 0
11598 2947 16 0.415 25.30082773657753 16.494995394243926 -28.476844310879194 0 1 0
12182 2956 16 0.415 27.483777911629257 30.722189976889187 -29.37630831407076 0 0 0
11096 2489 16 0.415 17.11854988650729 32.051857219453495 -21.356024997136146 0 0 0
11030 2803 16 0.415 21.896268908171443 28.834298451691097 -36.40251454788958 0 0 0
12183 2956 16 0.415 28.095391639741617 30.20750999902507 -30.661970893403446 0 0 0
10821 2859 16 0.415 16.867283472159812 17.23667502283222 -23.583812590806573 0 0 0
13988 1810 16 0.415 16.160733333036543 16.643736366971034 -32.693153695864495 1 0 0
7502 1353 16 0.415 25.30404720411202 31.858143279714326 -36.449786711484464 0 0 1
8267 203 16 0.415 29.99086453917619 32.32701444842308 -36.971940526431354 0 0 1
10753 1804 15 -0.83 25.26113131728308 22.427531909604838 -35.344347333941144 0 0 0
11599 2950 15 -0.83 22.004327398874587 17.21233984495858 -27.542481038940096 0 1 0
12234 2172 16 0.415 32.29409016377076 29.581289653966223 -19.714053121269174 0 0 0
11072 2508 16 0.415 18.64887860633969 30.860404845716154 -28.45464367997597 0 0 0
10836 1837 16 0.415 16.956295277062555 25.20625436007221 -22.76553725728493 0 0 0
11057 2094 16 0.415 20.805365496751058 23.578170128710273 -28.4097703338914 0 0 0
10878 1601 16 0.415 17.401930808822208 22.765955508333928 -24.627125288818114 0 0 0
11600 2950 16 0.415 21.516952781050602 17.709773290267442 -26.88577886050538 0 1 0
14015 2109 16 0.415 17.696091173982996 21.04121964607634 -22.309161692960934 1 0 0
10823 1648 16 0.415 19.413917388079835 26.802535698116518 -21.437902602871677 0 0 0
11056 2094 15 -0.83 21.556586886481558 23.08652159366514 -28.741703842849272 0 0 0
11091 2704 16 0.415 23.089064391593542 24.457908941275367 -22.346946650822602 0 0 0
12237 2780 16 0.415 32.071188976693236 32.12962924985511 -30.330660778509856 0 0 0
10794 2060 16 0.415 19.254201128026068 21.446192682802984 -26.61682185544968 0 0 0
14014 2109 15 -0.83 17.059854196465974 21.73933944680851 -22.15403923278475 1 0 0
10866 1618 16 0.415 21.322679651187602 17.328322566013547 -23.69723129407892 0 0 0
10874 1803 16 0.415 20.777415559894983 21.02056464499634 -28.485633986523318 0 0 0
10792 2060 15 -0.83 18.347127642554696 21.56995139735964 -26.89634466551205 0 0 0
10748 1571 16 0.415 18.942207531428156 26.4205175418641 -27.85645122508736 0 0 0
10805 2467 16 0.415 21.437636306260362 21.19051515610694 -24.50886927958086 0 0 0
14016 2109 16 0.415 16.901730193194215 21.71458502837911 -21.210314828105126 1 0 0
10804 2467 15 -0.83 21.036016066026104 21.607823337565492 -25.270963021455042 0 0 0
10806 2467 16 0.415 21.671455543219253 21.482673993909348 -25.97579352400153 0 0 0
10828 1604 15 -0.83 19.28826278596822 19.341072669510478 -22.233617221307423 0 0 0
10829 1604 16 0.415 19.246891374699334 18.422059387853142 -22.498069010101506 0 0 0
10830 1604 16 0.415 19.97346489820675 19.368012009735246 -21.565782027291064 0 0 0
10813 2828 15 -0.83 19.205085564986643 18.549654190751223 -26.05273232825958 0 0 0
10873 1803 15 -0.83 20.567517374873084 20.087652142967787 -28.442636223759127 0 0 0
10875 1803 16 0.415 21.414799211587333 19.647619752114682 -28.511315091905114 0 0 0
11942 2908 16 0.415 21.988499978318227 20.92487277628663 -22.033005736372164 0 0 0
11053 1861 15 -0.83 17.509375039783695 29.63781716537223 -26.816841026284507 0 0 0
10810 2288 15 -0.83 24.02396306525774 17.357160918692674 -22.957731371287068 0 0 0
11941 2908 15 -0.83 22.533458907658556 20.192128244551192 -22.319949997152733 0 0 0
11943 2908 16 0.415 22.773614032586078 19.740421510713876 -21.510926905416035 0 0 0
10793 2060 16 0.415 18.29840646381371 22.49102134093251 -27.15225111716914 0 0 0
10815 2828 16 0.415 18.701738553613087 19.277419762534976 -25.68772428495994 0 0 0
10814 2828 16 0.415 19.314886154875115 18.773463270370755 -26.97689959870048 0 0 0
10864 1618 15 -0.83 20.970529666527668 16.77879712355619 -22.99705702418428 0 0 0
12221 2608 16 0.415 29.66269023089248 27.08154968656922 -24.44490502505693 0 0 0
11906 2036 16 0.415 25.280411227637547 24.402657615094242 -24.261250669307863 0 0 0
11601 2950 16 0.415 21.467549802474636 17.268285735783284 -28.333032554469913 0 1 0
11905 2036 15 -0.83 24.34136401814657 24.527232349766642 -24.39873992021326 0 0 0
12144 1597 16 0.415 29.312627485721727 32.00451132484309 -31.20275449688601 0 0 0
12128 2837 16 0.415 32.147168988141296 25.010276254850474 -28.779168811257613 0 0 0
10876 1601 15 -0.83 17.572969068901003 23.69455302328099 -24.47001286517828 0 0 0
10865 1618 16 0.415 21.73871720766096 16.51148193880166 -22.49241624458399 0 0 0
10808 2347 16 0.415 18.618564040758702 16.440760707143 -26.068530479191107 0 0 0
12225 2647 16 0.415 27.37621430907104 23.20681458601947 -22.559106733279837 0 0 0
12730 2784 15 -0.83 28.536877604885525 16.15658133651454 -20.135530884627553 0 1 0
11037 2900 16 0.415 16.95505188979444 27.272806596121384 -37.103781984626565 1 0 0
11907 2036 16 0.415 24.122956876355428 23.93274979570265 -25.11645896745993 0 0 0
10835 1837 16 0.415 16.490805041489473 24.644783927564994 -21.438900586043776 0 0 0
6929 448 16 0.415 18.741221239302458 22.447271393766016 -36.7984212269898 0 0 1
8029 592 15 -0.83 27.718038853612825 25.17454940847028 -36.82706592462182 0 0 1
10812 2288 16 0.415 24.663873872636685 17.62584220201598 -22.29852260372076 0 0 0
11843 2627 16 0.415 30.197986048894812 16.25644687200853 -35.67842535775567 0 0 0
11872 2657 15 -0.83 28.55881253801753 20.493457970672328 -23.051544241332238 0 0 0
11046 2631 16 0.415 16.733257507333583 26.026429988444917 -30.120476534534824 0 0 0
11915 2809 16 0.415 30.55434293484443 23.231871634806605 -23.495315356911043 0 0 0
11830 2392 15 -0.83 26.945475751110187 19.363276009155758 -28.56109678277267 0 0 0
11832 2392 16 0.415 26.390315155292576 20.122921844982713 -28.737070424823717 0 0 0
11874 2657 16 0.415 29.16135958882626 21.170218731853023 -23.360030329825243 0 0 0
11596 2947 15 -0.83 25.878310170846873 16.68536700750559 -27.737584953875597 0 1 0
11873 2657 16 0.415 27.755355345700117 20.642102305505656 -23.55013539641257 0 0 0
11047 2596 15 -0.83 22.672217255069118 32.38019672860229 -31.7048691614966 0 0 0
10811 2288 16 0.415 24.325886544880962 17.769209124459213 -23.767231321963884 0 0 0
11896 1839 15 -0.83 26.58226786033594 21.121164864099335 -25.559333504552427 0 0 0
11897 1839 16 0.415 26.716068286030367 21.137557571846013 -26.50699396152455 0 0 0
11914 2809 15 -0.83 29.6803234774878 23.57156663908353 -23.30314580444088 0 0 0
11898 1839 16 0.415 25.637720632412478 21.008952416516742 -25.45223246095249 0 0 0
11901 2192 16 0.415 26.66474688316679 18.298212659701374 -22.799952485921676 0 0 0
11800 2807 15 -0.83 23.73626651055298 20.969328705168447 -26.83753024706828 0 0 0
11802 2807 16 0.415 23.876676119231142 21.806803585546117 -27.27929108846514 0 0 0
11831 2392 16 0.415 26.376063775577066 18.753414819629466 -28.09197941999916 0 0 0
12187 2797 15 -0.83 32.44045697053265 22.116978732632724 -27.15139468730866 0 0 0
11900 2192 16 0.415 27.83397261697383 18.24661226357026 -21.839669359391866 0 0 0
11927 1713 16 0.415 29.82461947193863 17.231705107351704 -27.664579421002433 0 0 0
11801 2807 16 0.415 23.676371679259784 20.330426563855188 -27.547775511596164 0 0 0
11045 2631 16 0.415 15.871838289456074 26.387781070676294 -28.929142287135857 0 0 0
11899 2192 15 -0.83 26.885229492989673 18.127730020476918 -21.884226054512155 0 0 0
11833 1718 15 -0.83 29.45087001940469 17.765468163884584 -24.233203896526426 0 0 0
11803 1692 15 -0.83 27.55383638146423 22.305628322663647 -29.000511804539403 0 0 0
11878 2547 15 -0.83 26.210735368120734 18.099030385763964 -25.02872937850844 0 0 0
11879 2547 16 0.415 26.112540877993354 17.838717103455224 -25.94460408871612 0 0 0
11880 2547 16 0.415 27.134609486196343 17.94327550994282 -24.832696678042876 0 0 0
11902 2417 15 -0.83 32.169497075375716 15.709580266998541 -28.153191736361407 0 0 0
11903 2417 16 0.415 32.311874287010866 16.65612841510462 -28.155868334586422 0 0 0
11876 2230 16 0.415 27.62493459547672 25.12502378798447 -19.87368955134528 0 0 0
11929 2393 15 -0.83 30.64804819265357 20.70697031308606 -25.119965942382933 0 0 0
11930 2393 16 0.415 31.43845116833218 21.194115459527982 -24.88719049219423 0 0 0
10880 2142 16 0.415 16.62958841088388 26.665576524788932 -19.890267913149128 0 0 0
11908 1532 15 -0.83 27.193190963038052 24.837394786703573 -25.393499289810315 0 0 0
11909 1532 16 0.415 28.019884533574057 25.261887973438704 -25.622878856698783 0 0 0
11926 1713 15 -0.83 30.378963001783838 17.978386914414944 -27.437860971133833 0 0 0
11939 2251 16 0.415 30.337976338151282 26.822364271889413 -21.220183727239124 0 0 0
14195 1704 16 0.415 16.650873423795986 30.17621486993549 -36.090913490216785 1 0 0
11916 2809 16 0.415 29.789272897556703 24.522493877109827 -23.293183613875726 0 0 0
11864 2286 16 0.415 31.825353896258896 15.78820798987527 -31.055691598263955 0 0 0
14223 2637 16 0.415 15.853963080502716 32.35955655754163 -28.288872554578138 1 0 0
11928 1713 16 0.415 29.771971791120297 18.63022720914546 -27.08729335997293 0 0 0
12175 2955 15 -0.83 32.39964432968971 28.57993464668853 -24.811834220936497 0 0 0
11112 2266 16 0.415 24.784415668189258 24.40180446057748 -27.61427410049735 0 0 0
11931 2393 16 0.415 30.558293517185575 20.832448961271982 -26.064651576328583 0 0 0
14186 1882 16 0.415 16.051296326620857 29.873498153627867 -32.730801046669754 1 0 0
10853 1858 16 0.415 20.582903894228675 24.45785452792523 -22.818282492755 0 0 0
11834 1718 16 0.415 29.699510722516084 18.479697549037816 -23.64644505319621 0 0 0
10738 1712 15 -0.83 17.327344689070387 17.80353550265604 -35.23142661404116 0 0 0
11912 1894 16 0.415 30.78191554876083 18.948577546469664 -21.050883660154966 0 1 0
11026 2460 15 -0.83 22.055171444199935 25.188562841052498 -26.346100418890924 0 0 0
11027 2460 16 0.415 22.70367314580486 25.557379788247804 -25.746391053875307 0 0 0
11086 2413 15 -0.83 23.973683085359525 29.54172076141869 -28.88096291905913 0 0 0
11088 2413 16 0.415 24.170215008340158 29.91404066417014 -29.74060523816064 0 0 0
11058 2094 16 0.415 21.754177738947767 23.49139199898156 -29.586256609072013 0 0 0
11083 2883 15 -0.83 21.5689744174708 30.864169110821912 -21.732504027970794 0 0 0
10854 1858 16 0.415 21.170038774457936 23.84630903817456 -24.072546988488746 0 0 0
8039 625 16 0.415 22.57033520485216 19.84396344131718 -35.803083288293145 0 0 1
12486 1936 16 0.415 26.883997399744093 30.82227387275038 -26.28660133396788 0 0 0
10739 1712 16 0.415 17.35136575892744 18.28174175996344 -34.402587988539615 0 0 0
10834 1837 15 -0.83 16.539388248243082 25.457973747087088 -21.941487696104975 0 0 0
11028 2460 16 0.415 21.24975277355402 25.668558603781392 -26.153391878155702 0 0 0
8040 625 16 0.415 23.611353080605625 19.293963097840475 -36.75475364217889 0 0 1
11952 2496 16 0.415 27.012904372798566 21.036755231489284 -21.07776210314189 0 0 0
8031 592 16 0.415 28.146680857221323 24.56567017564807 -36.22559784150654 0 0 1
10852 1858 15 -0.83 20.381620078457246 24.27168144415077 -23.73537357004058 0 0 0
12198 1642 16 0.415 24.088911131256452 27.144091251742463 -28.578684755134386 0 0 0
10767 2210 16 0.415 26.597297605092155 17.715963662065064 -30.915597181173197 0 0 0
11117 1785 16 0.415 18.861471578033566 25.999466413418233 -24.86691479573884 0 0 0
12224 2647 16 0.415 26.475464608382378 24.215781571357233 -21.87901063857902 0 0 0
10822 1648 15 -0.83 20.192813944375345 26.43236270325621 -21.022542733187645 0 0 0
10867 1628 15 -0.83 18.87266772101327 29.60672060357243 -19.926891172095104 0 0 0