LAMMPS data file via write_data, version 29 Oct 2020, timestep = 1000

90 atoms
16 atom types
60 bonds
19 bond types
30 angles
24 angle types
0 dihedrals
42 dihedral types

0.02237400271357072 29.977625997286385 xlo xhi
0.02237400271357072 29.977625997286385 ylo yhi
0.02237400271357072 29.977625997286385 zlo zhi

Masses

1 12.01
2 1.008
3 12.01
4 16
5 14.01
6 1.008
7 16
8 14.01
9 1.008
10 12.01
11 14.01
12 12.01
13 1.008
14 16
15 15.9994
16 1.008

Pair Coeffs # lj/cut/coul/long/omp

1 0.086 3.39967
2 0.015 2.59964
3 0.086 3.39967
4 0.21 2.95992
5 0.17 3.25
6 0.0157 1.06908
7 0.2104 3.06647
8 0.17 3.25
9 0 0
10 0.086 3.39967
11 0.17 3.25
12 0.086 3.39967
13 0.0157 1.06908
14 0.2104 3.06647
15 0.102 3.188
16 0 0

Atoms # full

74 25 16 0.415 0.9850859484828776 3.816520624899975 3.3114366439618608 0 0 0
69 23 16 0.415 9.605893392493671 2.304320198353842 1.981192126102106 0 0 0
77 26 16 0.415 2.6225423839929594 1.0716371142598737 7.156579211933722 0 0 0
75 25 16 0.415 1.5223426499815746 4.596325801919442 3.365591954362947 0 0 0
22 8 15 -0.83 9.049808441059366 5.121771652935779 3.550400187614933 0 0 0
23 8 16 0.415 9.232373410369691 5.681288666574265 2.7955080347795938 0 0 0
24 8 16 0.415 9.926027126803415 5.474217441716558 3.394599863787778 0 0 0
31 11 15 -0.83 3.9675086062319345 1.393812457908302 0.46629761810122977 0 0 0
72 24 16 0.415 8.54803012019023 3.2175815791489333 4.19986990100334 0 0 0
32 11 16 0.415 3.1419417266650664 1.8622680550235169 0.5897142140554458 0 0 0
86 29 16 0.415 2.105007180555268 5.096230403653633 1.4072344535541002 0 0 0
73 25 15 -0.83 1.574110327489151 4.037659828770661 2.5900537583006704 0 0 0
71 24 16 0.415 8.369468591643244 2.3342256888506165 3.839659964124563 0 0 0
76 26 15 -0.83 2.3950341578009513 1.9813796546685498 6.964612551724517 0 0 0
87 29 16 0.415 2.6762965660366635 4.639172986341714 0.9394598586760401 0 0 0
43 15 15 -0.83 0.8696907581399298 5.858116608631817 4.31961220405974 0 0 0
85 29 15 -0.83 2.1807001385295 5.316192551759275 0.47872050067629324 0 0 0
68 23 16 0.415 9.847701317753478 2.304217653629142 1.9948840872521467 0 0 0
28 10 15 -0.83 10.173783637798051 6.964477716537998 2.1250650231813455 0 0 0
45 15 16 0.415 1.0211426115961713 6.502006173591494 5.0115064306435295 0 0 0
78 26 16 0.415 2.438931684364628 1.0542278285856408 7.198516994155403 0 0 0
34 12 15 -0.83 7.606505220058412 0.7434306582857774 6.903632623821954 0 0 0
70 24 15 -0.83 7.890964609497905 2.651858839412564 4.605424629553427 0 0 0
54 18 16 0.415 7.461636329718824 1.358736388889782 0.40322451220948585 0 0 0
14 5 16 0.415 7.5085646639965855 5.082576372126677 6.025514729919611 0 0 0
36 12 16 0.415 8.126133917824244 1.0257409158855517 6.150948069748662 0 0 0
67 23 15 -0.83 9.67822550298094 2.7019681032472986 2.8488835500363776 0 0 0
35 12 16 0.415 7.741471875708364 1.033777555004912 6.001566665425921 0 0 0
13 5 15 -0.83 8.069730608018496 5.066092475458045 6.800797787543618 0 0 0
44 15 16 0.415 0.469308505299913 6.634433716550375 4.711113514059385 0 0 0
33 11 16 0.415 3.5759247382407606 1.7042312702836937 1.2827248392055965 0 0 0
15 5 16 0.415 7.731284070577036 4.454615585897995 6.146736333723725 0 0 0
52 18 15 -0.83 8.1789553993235 1.3195735338017651 1.0358133669085037 0 0 0
1 1 15 -0.83 0.10714089574161595 1.0057612691167397 2.7779173462438176 0 0 0
53 18 16 0.415 8.165438768919078 1.3864096880765469 0.08103515857497542 0 0 0
30 10 16 0.415 9.309476885683965 7.307406160172776 1.8978526224735008 0 0 0
48 16 16 0.415 8.670532814153733 6.587428723344677 7.368878275287549 0 0 0
80 27 16 0.415 5.259002898913864 7.442773545471519 1.5756852371161125 0 0 0
4 2 15 -0.83 7.150141456816195 0.880892082307406 9.224772656798798 0 0 0
7 3 15 -0.83 0.890663257927711 1.2306998886514338 10.90193807228459 0 0 0
8 3 16 0.415 1.7683421075351442 1.5506007573157263 10.693143742245548 0 0 0
41 14 16 0.415 4.2164264952016355 6.737626951404421 9.900951973111564 0 0 0
60 20 16 0.415 6.466021937651081 3.2081820307233353 9.292653631647092 0 0 0
59 20 16 0.415 5.871532279731292 2.6675307736580005 9.348632363093726 0 0 0
16 6 15 -0.83 2.559890666342917 2.8214876994856906 9.658761083647159 0 0 0
17 6 16 0.415 2.3816902784486387 3.7578057069099535 9.570449801076947 0 0 0
18 6 16 0.415 2.7804354773274054 3.4468453662741276 8.968447955120446 0 0 0
40 14 15 -0.83 3.274975206579791 6.739615407394873 10.07391635069457 0 0 0
9 3 16 0.415 1.302158264900867 1.7377527316833616 10.202069313503435 0 0 0
5 2 16 0.415 7.777549986413276 0.8338912499422944 8.503386121073063 0 0 0
58 20 15 -0.83 5.584045062638233 3.57974194001004 9.310286134848969 0 0 0
46 16 15 -0.83 9.347718898028708 6.954759884643972 7.936978897714695 0 0 0
6 2 16 0.415 7.197784287911539 0.03583521535592739 8.777714996022418 0 0 0
47 16 16 0.415 9.658492522168487 6.056234825528863 7.825963965602139 0 0 0
10 4 15 -0.83 6.451477824353273 1.0919000619180372 29.041481517619758 0 0 -1
11 4 16 0.415 5.77267840677246 1.1395953275331734 29.714687532084568 0 0 -1
12 4 16 0.415 5.554288538695954 1.3437609665803445 28.82270232580136 0 0 -1
83 28 16 0.415 3.243058635084165 6.642092104894352 29.492394841466382 0 0 -1
82 28 15 -0.83 3.923750854743486 7.296910359049552 29.647681135395043 0 0 -1
84 28 16 0.415 3.205154970264266 6.673140828700018 29.54387458507784 0 0 -1
19 7 15 -0.83 1.741800299970788 7.892698325902452 5.606842161024917 0 0 0
27 9 16 0.415 8.20090116410299 10.281880805539057 5.8241799465796635 0 0 0
50 17 16 0.415 7.370296218610959 8.521238202823385 2.1785043734687437 0 0 0
51 17 16 0.415 7.408820373481624 8.498708714070455 3.324965917095022 0 0 0
49 17 15 -0.83 8.151640215417636 8.586193729603599 2.7276257012657874 0 0 0
25 9 15 -0.83 7.3605784419175295 10.253021005868948 5.366713010342373 0 0 0
26 9 16 0.415 7.4822668709589175 11.200204932627763 5.432183805743304 0 0 0
20 7 16 0.415 1.987089668831348 8.090609165634293 6.510676958821117 0 0 0
21 7 16 0.415 1.9208265467407204 8.821296674932325 5.4588306098485635 0 0 0
79 27 15 -0.83 5.841654895867417 7.915780457455907 2.1698442739532937 0 0 0
81 27 16 0.415 5.267038937715977 7.76301175045577 1.4196940739670025 0 0 0
88 30 15 -0.83 3.9929407571046416 9.612702673187062 7.313525419362818 0 0 0
29 10 16 0.415 10.101797718548992 7.684190725822631 2.7520266548556673 0 0 0
37 13 15 -0.83 6.51349100909022 9.617369161399635 9.1126812586002 0 0 0
38 13 16 0.415 7.209791681125358 9.016741856926833 9.378496809602897 0 0 0
39 13 16 0.415 7.071131939028835 8.84126495687103 9.058403994447325 0 0 0
89 30 16 0.415 4.7151665951880615 10.128075463086564 7.672721747845998 0 0 0
62 21 16 0.415 9.95614209284581 7.580120733695529 9.953602075317878 0 0 0
61 21 15 -0.83 9.819561246868153 8.524768952741349 9.881233670077695 0 0 0
63 21 16 0.415 9.728321290930637 8.092508135418589 9.032072089807734 0 0 0
90 30 16 0.415 4.653073466583228 10.138857097748916 7.764780696381823 0 0 0
42 14 16 0.415 3.6032315126617607 7.637576350100958 10.02739229657507 0 0 0
64 22 15 -0.83 2.104988488625273 10.730118198528103 28.578944562679116 0 0 -1
66 22 16 0.415 2.5995429224865045 10.872753885246782 29.385989625061857 0 0 -1
65 22 16 0.415 2.9548489122468427 10.290226198082301 28.55696099267331 0 0 -1
55 19 15 -0.83 2.4428909708658644 29.283568291206002 7.247990685701783 0 -1 0
56 19 16 0.415 1.8648679037418594 28.521073481540697 7.275157160640603 0 -1 0
57 19 16 0.415 1.9862503328483119 28.673046106653693 7.826771921957567 0 -1 0
2 1 16 0.415 29.712209371055415 1.787534724451439 2.350774368323196 -1 0 0
3 1 16 0.415 29.247745606898608 0.8418134344502347 2.302816785752649 -1 0 0

Velocities

74 -0.005288571029204122 0.13713296998535468 0.020829611652548995
69 -0.11424695496365384 -0.07962902013523467 0.04202278058924676
77 -0.12186699161450903 -0.008189017678375786 0.0983189547744938
75 -0.0008548969082071935 -0.11108197089837829 0.061401065129817974
22 0.017828345322412037 -0.001874861858785116 -0.010698140295884277
23 -0.024997890475114786 -0.016287696414249007 -0.031906997269462514
24 0.020493033337620103 0.017870322976437546 0.048264053518751425
31 -0.0025294258792901056 0.0002513599952001367 -0.0010067464327115547
72 -0.0028875051818011543 0.03024235209386481 0.020993940355416293
32 0.028649185468955174 0.08723806527381218 -0.12038444776139941
86 -0.06530556546061467 -0.013109432838244754 -0.010097974601267894
73 0.005520906536242973 -0.005893538468161901 -0.013617542185815306
71 -0.005908128555136722 -0.01476921832143172 -0.002393900686866862
76 0.010914962750825158 0.004159157678864813 0.00043570707556075765
87 0.034090687880200685 0.02152375946162907 -0.0051125705553451955
43 0.0002852781727643346 0.009846135787661683 0.012622241700778018
85 0.001505283180207327 0.00018330317676223468 -0.0015151093577349475
68 0.11899338640497074 0.10341008925406794 -0.027542204955119214
28 -0.007265077690361987 -0.004599599895002114 0.009040897168082231
45 0.08602544244903741 -0.023568955806197743 0.02513672464626561
78 0.1087140590566041 -0.002311276147305366 -0.044226647505673185
34 -0.0127193478092815 -0.00942815797986504 0.012742560403280012
70 0.00280880832080452 0.0048179783035726615 -0.004994339418829112
54 0.0725458732320743 0.03709170093831767 -0.06506555184100707
14 -0.038062462255522206 -0.14032936120310474 0.03237314525223177
36 -0.1155711011997825 -0.022648672190878155 -0.06290732152399145
67 -0.003936684377448186 0.006498198247620303 -0.006590286643769121
35 0.1391514380424065 0.08035954743696556 0.0646371591947999
13 0.02015403823155859 0.011833892942862622 -0.006938876358752694
44 -0.0876832167029139 -0.005232629895233134 -0.046783307704463976
33 0.02104896690500883 -0.04722666887635196 0.02844820194702196
15 -0.07360606807755282 0.10216977506051567 -0.04250505922855013
52 0.003247172811060467 0.002447900039420073 0.010945326777045544
1 0.009120774836176416 -0.0017633164853369907 -2.5838176618817986e-05
53 -0.06419879686924929 -0.034787722349306716 0.009534938923607888
30 0.006126008698339178 -0.002023547571681523 -0.038374370131950504
48 -0.0073618702814292 0.034585954790507356 -0.025290318826691516
80 -0.06020764643638734 -0.07826055459935154 0.10962401724557894
4 0.0021041818101219436 -0.003504711429292272 -0.0026602776116866136
7 0.0009694428209014705 0.00478423550960127 0.001837232232148988
8 0.010313161970497182 0.008241509483278833 0.046081652070139895
41 -0.00562875937164763 0.06902408379712617 -0.019781898358160074
60 -0.039107197645161476 -0.060717219073213244 0.04289595598433759
59 0.051984031996626906 0.019754006656181055 -0.0886070488351586
16 -0.004108486489297206 -0.009031001810556506 -0.0012413114562863014
17 0.0871694155043826 -0.002701913717166467 -0.11413220341932448
18 -0.017930892694938895 0.1062512536571206 0.09918450745393373
40 -0.0016396226231801963 -0.00439638530400411 0.0015752985770779502
9 -0.08238250785020666 -0.023718618550936862 -0.06819883060692832
5 0.00154168052649145 -0.11249740143834557 0.004384794942013305
58 -0.012983650166746043 0.0027977220382393213 -0.0002571461464476254
46 -0.006243307589078734 -0.005625470787710732 -0.00039793385259928626
6 0.06979928142733542 0.005503038267914471 -0.012065799024038492
47 0.020700641083484884 0.0005471314058432295 0.023956004533134418
10 -0.015944788142715095 -0.0007228845825617207 0.0012950368844301303
11 0.036777943555137256 -0.009636434506559786 0.055419265185613166
12 0.013327114380838556 0.010305927864927731 -0.10737647216496359
83 -0.0839432839275565 0.09695934558490735 -0.09482162819238907
82 -0.004785775237273267 -0.008179213709638753 0.0013353099984795382
84 0.05159164536877122 -0.09157354396465972 0.11231514116202472
19 0.007890616456953135 0.005535958900211544 0.019143485696416135
27 0.024494029922275055 0.021433696389760795 -0.05819164608226064
50 0.011668120099355778 -0.024082297706552996 -0.01188447179216575
51 -0.028173237603198193 0.08368839264630451 -0.0055218940615196
49 -0.006049792222796664 0.0026698789252299552 0.01031465606017754
25 -0.006146876775778638 -0.0039676461349123105 -8.414638728788467e-05
26 0.04555939097626096 -0.013247573693017187 0.03486773970301791
20 0.00923374566203794 0.021566668470252695 0.015181077525702509
21 -0.006141732199705064 0.008173921742852329 0.0187459840526835
79 -0.003537865486234141 -0.004556101654030677 -0.004349878526400006
81 0.06584251505301122 0.06282160311338454 -0.07136362536306459
88 -0.005867096906661341 -0.004168750426874253 -0.012549842128030725
29 0.0703132400855014 0.005872190147211325 0.006268554827218579
37 0.0033927364386381977 -0.0013524923376189353 0.001969308614891657
38 0.09406869452588025 0.09611920867666723 -0.015188182535427728
39 -0.07413645533487637 -0.061941138988060106 0.07183628183267064
89 0.09520904533773156 -0.14493665956711763 -0.013813524884684465
62 -0.036711235106965084 6.064237259815656e-05 -0.057616890063298246
61 -0.004979147639010839 0.008758392058571617 -0.0010871089560046303
63 0.05962315549677601 -0.0664826228078957 0.030644374701045033
90 -0.10330553551279605 0.09248869557847265 0.01752953183894491
42 0.06339789585247353 -0.031116138461251375 -0.05024911143850769
64 -0.002532406823328536 -0.0005536335103069878 -0.0020921340245799174
66 0.059293105568170204 -0.05049200037635284 -0.03145453390977523
65 0.028183972560170707 0.05704712897531017 0.04140655592313727
55 -0.0014523644887347986 0.00018277827197797568 -0.0004591488317384603
56 -0.023242157231226513 0.021439980458827734 0.12450613839173796
57 0.012200712918220724 -0.10166588138933154 -0.09753769472967554
2 -0.081905164130101 -0.05193356908521401 -0.01655652576669537
3 0.02202571025262731 0.08427091618375696 -0.05129642771426651

Bonds

1 19 22 23
2 19 22 24
3 19 31 32
4 19 31 33
5 19 73 74
6 19 73 75
7 19 76 77
8 19 76 78
9 19 43 44
10 19 43 45
11 19 85 86
12 19 85 87
13 19 28 29
14 19 28 30
15 19 34 35
16 19 34 36
17 19 70 71
18 19 70 72
19 19 67 68
20 19 67 69
21 19 13 14
22 19 13 15
23 19 52 53
24 19 52 54
25 19 1 2
26 19 1 3
27 19 4 5
28 19 4 6
29 19 7 8
30 19 7 9
31 19 16 17
32 19 16 18
33 19 40 41
34 19 40 42
35 19 58 59
36 19 58 60
37 19 46 47
38 19 46 48
39 19 10 11
40 19 10 12
41 19 82 83
42 19 82 84
43 19 19 20
44 19 19 21
45 19 49 50
46 19 49 51
47 19 25 26
48 19 25 27
49 19 79 80
50 19 79 81
51 19 88 89
52 19 88 90
53 19 37 38
54 19 37 39
55 19 61 62
56 19 61 63
57 19 64 65
58 19 64 66
59 19 55 56
60 19 55 57

Angles

1 24 73 74 75
2 24 76 77 78
3 24 22 23 24
4 24 31 32 33
5 24 85 86 87
6 24 70 71 72
7 24 67 68 69
8 24 13 14 15
9 24 34 35 36
10 24 43 44 45
11 24 52 53 54
12 24 79 80 81
13 24 7 8 9
14 24 40 41 42
15 24 58 59 60
16 24 16 17 18
17 24 4 5 6
18 24 46 47 48
19 24 10 11 12
20 24 82 83 84
21 24 49 50 51
22 24 25 26 27
23 24 19 20 21
24 24 28 29 30
25 24 37 38 39
26 24 88 89 90
27 24 61 62 63
28 24 64 65 66
29 24 55 56 57
30 24 1 2 3
