Random packing of 'slab.lmps', 100 x 'H.lmps', 100 x 'OH.lmps'

90 atoms
60 bonds
30 angles
0 dihedrals
0 impropers

16 atom types
19 bond types
24 angle types
42 dihedral types

0.0000000 10.000000 xlo xhi
0.0000000 10.000000 ylo yhi
0.0000000 10.000000 zlo zhi

Masses

 1 12.0100000 # CA (carbon aromatic)
 2 1.0080000 # HA (hydrogen aromatic)
 3 12.0100000 # C (carbon in carboxyl)
 4 16.0000000 # O (oxygen)
 5 14.0100000 # N (nitrogen with 1 hydrogen)
 6 1.0080000 # HN (hydrogen on nitrogen)
 7 16.0000000 # OH (protonated carboxyl oxygen)
 8 14.0100000 # NH (nitrogen with 2 hydrogens)
 9 1.0080000 # HO (hydrogen on oxygen)
 10 12.0100000 # LC (crosslinked carbon)
 11 14.0100000 # LN (crosslinked nitrogen)
 12 12.0100000 # CT (terminated carbon on carboxyl group)
 13 1.0080000 # H (free hydrogen for termination)
 14 16.0000000 # OR (reactive oxygen in free hydroxyl)
 15 15.9994000 # OW (oxygen in water)
 16  1.0080000 # HW (hydrogen in water)

Pair Coeffs

 1 0.0860000 3.3996695 # CA
 2 0.0150000 2.5996425 # HA
 3 0.0860000 3.3996695 # C
 4 0.2100000 2.9599219 # O
 5 0.1700000 3.2499985 # N
 6 0.0157000 1.0690785 # HN
 7 0.2104000 3.0664734 # OH
 8 0.1700000 3.2499985 # NH
 9 0.0000000 0.0000000 # HO
 10 0.0860000 3.3996695 # LC
 11 0.1700000 3.2499985 # LN
 12 0.0860000 3.3996695 # CT
 13 0.0157000 1.0690785 # H
 14 0.2104000 3.0664734 # OR
 15 0.1020000 3.1880000 # OW
 16 0.0000000 0.0000000 # HW

Bond Coeffs

 1 harmonic 4.61100000e+02 1.39840000e+00 # CA-CA
 2 harmonic 3.45900000e+02 1.49060000e+00 # CA-C
 3 harmonic 3.45800000e+02 1.08600000e+00 # CA-HA
 4 harmonic 6.37700000e+02 1.21830000e+00 # C-O
 5 harmonic 4.27600000e+02 1.37890000e+00 # LC-LN
 6 harmonic 3.84200000e+02 1.41210000e+00 # N-CA
 7 harmonic 4.03200000e+02 1.01290000e+00 # N-HN
 8 harmonic 4.17900000e+02 1.38590000e+00 # CA-NH
 9 harmonic 4.04600000e+02 1.01210000e+00 # NH-HN
 10 harmonic 3.45900000e+02 1.49060000e+00 # CA-LC
 11 harmonic 6.37700000e+02 1.21830000e+00 # LC-O
 12 harmonic 3.84200000e+02 1.41210000e+00 # LN-CA
 13 harmonic 4.03200000e+02 1.01290000e+00 # LN-HN
 14 harmonic 4.00100000e+02 1.35130000e+00 # CT-OH
 15 harmonic 3.71400000e+02 9.73000000e-01 # OH-HO
 16 harmonic 3.45900000e+02 1.49060000e+00 # CA-CT
 17 harmonic 6.37700000e+02 1.21830000e+00 # CT-O
 18 harmonic 3.71400000e+02 9.73000000e-01 # OR-HO
 19 harmonic 4.50000000e+02 9.57200000e-01 # OW-HW


Angle Coeffs

 1 harmonic 6.66000000e+01 1.20020052e+02 # CA-CA-CA
 2 harmonic 4.82000000e+01 1.19880051e+02 # CA-CA-HA
 3 harmonic 6.87000000e+01 1.22600053e+02 # CA-C-O
 4 harmonic 6.43000000e+01 1.20330052e+02 # CA-CA-C
 5 harmonic 6.77000000e+01 1.15250050e+02 # CA-LC-LN (TMC-side)
 6 harmonic 6.38000000e+01 1.23710053e+02 # LC-LN-CA (MPD-side)
 7 harmonic 4.83000000e+01 1.17550051e+02 # LC-LN-HN
 8 harmonic 7.42000000e+01 1.23050053e+02 # O-LC-LN
 9 harmonic 6.79000000e+01 1.20190052e+02 # N-CA-CA
 10 harmonic 4.76000000e+01 1.16000050e+02 # CA-N-HN
 11 harmonic 6.83000000e+01 1.20950052e+02 # CA-CA-NH
 12 harmonic 4.84000000e+01 1.16070050e+02 # CA-NH-HN
 13 harmonic 7.79000000e+01 1.30250056e+02 # O-C-O (does not exist in protonated monomers)
 14 harmonic 4.01000000e+01 1.15120050e+02 # HN-NH-HN
 15 harmonic 6.87000000e+01 1.22600053e+02 # CA-LC-O
 16 harmonic 6.43000000e+01 1.20330052e+02 # CA-CA-LC
 17 harmonic 6.79000000e+01 1.20190052e+02 # LN-CA-CA
 18 harmonic 4.76000000e+01 1.16000050e+02 # CA-LN-HN
 19 harmonic 6.92000000e+01 1.13450049e+02 # CA-CT-OH
 20 harmonic 4.99000000e+01 1.06550046e+02 # CT-OH-HO
 21 harmonic 7.59000000e+01 1.22100052e+02 # O-CT-OH
 22 harmonic 6.87000000e+01 1.22600053e+02 # CA-CT-O
 23 harmonic 6.43000000e+01 1.20330052e+02 # CA-CA-CT
 24 harmonic 5.50000000e+01 1.04520000e+02 # HW-OW-HW

Dihedral Coeffs

 1 charmm 3.62500000e+00 2 180 0 # CA-CA-CA-CA
 2 charmm 1.10000000e+00 2 180 0 # CA-CA-CA-HA (improper)
 3 charmm 1.00000000e+00 2 180 0 # CA-CA-C-O
 4 charmm 2.50000000e+00 2 180 0 # CA-LC-LN-CA
 5 charmm 1.05000000e+01 2 180 0 # CA-LC-LN-O
 6 charmm 4.50000000e-01 2 180 0 # LC-LN-CA-CA
 7 multi/harmonic 2.00000000e+00 2.00000000e+00 0.00000000e+00 0.00000000e+00 0.00000000e+00 # O-LC-LN-HN
 8 charmm 1.05000000e+00 2 180 0 # CA-CA-NH-HN
 9 charmm 3.62500000e+00 2 180 0 # CA-CA-CA-C
 10 charmm 3.62500000e+00 2 180 0 # CA-CA-CA-LC
 11 charmm 3.62500000e+00 2 180 0 # CA-CA-CA-HA
 12 charmm 3.62500000e+00 2 180 0 # C-CA-CA-HA
 13 charmm 3.62500000e+00 2 180 0 # LC-CA-CA-HA
 14 charmm 3.62500000e+00 2 180 0 # N-CA-CA-CA
 15 charmm 3.62500000e+00 2 180 0 # LN-CA-CA-CA
 16 charmm 3.62500000e+00 2 180 0 # N-CA-CA-HA
 17 charmm 3.62500000e+00 2 180 0 # LN-CA-CA-HA
 18 charmm 3.62500000e+00 2 180 0 # CA-CA-CA-NH
 19 charmm 3.62500000e+00 2 180 0 # HA-CA-CA-HA
 20 charmm 3.62500000e+00 2 180 0 # HA-CA-CA-NH
 21 charmm 1.10000000e+00 2 180 0 # CA-O-OH-CT (improper) (changed from CA-O-O-C in unprotonated)
 22 charmm 1.10000000e+00 2 180 0 # CA-CA-CA-C (improper)
 23 charmm 1.10000000e+00 2 180 0 # CA-CA-CA-LC (improper)
 24 charmm 1.10000000e+00 2 180 0 # LC-CA-LN-HN (improper)
 25 charmm 1.10000000e+00 2 180 0 # CA-CA-CA-N (improper)
 26 charmm 1.10000000e+00 2 180 0 # CA-CA-CA-LN (improper)
 27 charmm 1.10000000e+00 2 180 0 # CA-CA-CA-NH (improper)
 28 charmm 1.10000000e+00 2 180 0 # CA-HN-NH-HN (improper)
 29 charmm 1.00000000e+00 2 180 0 # CA-CA-LC-O
 30 charmm 1.00000000e+00 2 180 0 # CA-CA-LC-LN
 31 charmm 2.50000000e+00 2 180 0 # CA-LC-LN-HN
 32 charmm 2.50000000e+00 2 180 0 # O-LC-LN-CA
 33 charmm 2.50000000e+00 2 180 0 # O-LC-LN-HN
 34 charmm 4.50000000e-01 2 180 0 # HN-LN-CA-CA
 35 charmm 2.30000000e+00 2 180 0 # CA-CT-OH-HO
 36 multi/harmonic 1.90000000e+00 1.90000000e+00 0.00000000e+00 0.00000000e+00 0.00000000e+00 # O-CT-OH-HO
 37 charmm 4.50000000e-01 2 180 0 # CA-CA-N-HN
 38 charmm 1.00000000e+00 2 180 0 # CA-CA-CT-OH
 39 charmm 1.00000000e+00 2 180 0 # CA-CA-CT-O
 40 charmm 3.62500000e+00 2 180 0 # CA-CA-CA-CT
 41 charmm 3.62500000e+00 2 180 0 # CT-CA-CA-HA
 42 charmm 1.10000000e+00 2 180 0 # CA-CA-CA-CT (improper)

Atoms

 1 1 15 -0.830 0.326 0.280 4.095
 2 1 16 0.415 -0.021 1.209 4.572
 3 1 16 0.415 -0.036 0.007 3.093
 4 2 15 -0.830 8.229 -0.038 9.346
 5 2 16 0.415 8.433 0.816 10.009
 6 2 16 0.415 7.398 0.010 8.626
 7 3 15 -0.830 3.867 0.602 9.501
 8 3 16 0.415 4.650 1.142 10.055
 9 3 16 0.415 3.150 -0.033 10.041
 10 4 15 -0.830 6.511 1.081 0.244
 11 4 16 0.415 5.771 1.762 0.691
 12 4 16 0.415 6.232 0.043 0.010
 13 5 15 -0.830 7.059 3.488 8.678
 14 5 16 0.415 6.770 3.648 9.727
 15 5 16 0.415 6.336 3.063 7.966
 16 6 15 -0.830 1.441 2.788 9.991
 17 6 16 0.415 0.422 3.202 9.992
 18 6 16 0.415 2.310 3.462 9.986
 19 7 15 -0.830 0.269 9.180 4.330
 20 7 16 0.415 0.844 10.002 4.782
 21 7 16 0.415 0.004 9.216 3.263
 22 8 15 -0.830 6.361 4.902 5.226
 23 8 16 0.415 6.825 5.856 5.517
 24 8 16 0.415 5.771 4.836 4.299
 25 9 15 -0.830 8.933 9.809 4.272
 26 9 16 0.415 9.994 9.933 4.009
 27 9 16 0.415 8.154 9.977 3.513
 28 10 15 -0.830 8.443 5.480 2.070
 29 10 16 0.415 9.014 5.318 1.143
 30 10 16 0.415 8.429 6.474 2.541
 31 11 15 -0.830 3.032 0.133 1.904
 32 11 16 0.415 2.972 1.149 2.324
 33 11 16 0.415 2.992 -0.014 0.814
 34 12 15 -0.830 9.653 1.225 6.553
 35 12 16 0.415 9.974 1.921 7.342
 36 12 16 0.415 9.976 0.173 6.581
 37 13 15 -0.830 6.717 9.990 9.617
 38 13 16 0.415 6.889 10.077 8.533
 39 13 16 0.415 5.704 9.796 10.000
 40 14 15 -0.830 0.610 6.620 9.896
 41 14 16 0.415 1.150 7.579 9.900
 42 14 16 0.415 0.005 6.333 9.023
 43 15 15 -0.830 0.664 6.447 0.916
 44 15 16 0.415 -0.003 6.364 0.044
 45 15 16 0.415 1.135 5.547 1.337
 46 16 15 -0.830 9.995 4.781 9.443
 47 16 16 0.415 10.042 3.843 10.018
 48 16 16 0.415 9.997 5.748 9.967
 49 17 15 -0.830 9.810 8.935 0.831
 50 17 16 0.415 10.005 8.246 -0.005
 51 17 16 0.415 10.001 10.012 0.712
 52 18 15 -0.830 9.768 1.537 -0.017
 53 18 16 0.415 10.015 2.191 0.832
 54 18 16 0.415 10.012 0.465 0.025
 55 19 15 -0.830 0.982 0.454 7.623
 56 19 16 0.415 1.776 -0.035 7.039
 57 19 16 0.415 -0.029 0.020 7.649
 58 20 15 -0.830 5.874 6.694 8.834
 59 20 16 0.415 6.967 6.786 8.736
 60 20 16 0.415 5.214 7.155 8.085
 61 21 15 -0.830 9.854 9.006 9.495
 62 21 16 0.415 9.997 10.007 9.930
 63 21 16 0.415 9.951 8.858 8.409
 64 22 15 -0.830 1.110 9.583 0.003
 65 22 16 0.415 0.092 10.002 0.003
 66 22 16 0.415 1.876 9.998 0.675
 67 23 15 -0.830 8.946 0.385 3.455
 68 23 16 0.415 9.957 -0.015 3.286
 69 23 16 0.415 8.091 -0.029 2.900
 70 24 15 -0.830 9.544 4.117 4.860
 71 24 16 0.415 10.006 5.094 5.068
 72 24 16 0.415 10.005 3.433 4.132
 73 25 15 -0.830 0.072 2.059 0.041
 74 25 16 0.415 -0.031 0.968 -0.062
 75 25 16 0.415 1.068 2.524 0.008
 76 26 15 -0.830 1.025 3.781 6.356
 77 26 16 0.415 0.003 3.684 6.752
 78 26 16 0.415 1.760 4.414 6.876
 79 27 15 -0.830 6.560 9.209 -0.009
 80 27 16 0.415 6.431 10.038 0.704
 81 27 16 0.415 6.635 8.174 0.358
 82 28 15 -0.830 4.794 8.889 3.326
 83 28 16 0.415 5.433 7.999 3.424
 84 28 16 0.415 3.806 8.914 3.810
 85 29 15 -0.830 5.025 4.976 0.598
 86 29 16 0.415 5.943 4.973 -0.009
 87 29 16 0.415 4.325 5.822 0.532
 88 30 15 -0.830 2.991 10.003 7.314
 89 30 16 0.415 2.824 10.000 8.402
 90 30 16 0.415 4.016 9.997 6.914


Bonds

 1 19 1 2
 2 19 1 3
 3 19 4 5
 4 19 4 6
 5 19 7 8
 6 19 7 9
 7 19 10 11
 8 19 10 12
 9 19 13 14
 10 19 13 15
 11 19 16 17
 12 19 16 18
 13 19 19 20
 14 19 19 21
 15 19 22 23
 16 19 22 24
 17 19 25 26
 18 19 25 27
 19 19 28 29
 20 19 28 30
 21 19 31 32
 22 19 31 33
 23 19 34 35
 24 19 34 36
 25 19 37 38
 26 19 37 39
 27 19 40 41
 28 19 40 42
 29 19 43 44
 30 19 43 45
 31 19 46 47
 32 19 46 48
 33 19 49 50
 34 19 49 51
 35 19 52 53
 36 19 52 54
 37 19 55 56
 37 19 55 57
 39 19 58 59
 40 19 58 60
 41 19 61 62
 42 19 61 63
 43 19 64 65
 44 19 64 66
 45 19 67 68
 46 19 67 69
 47 19 70 71
 48 19 70 72
 49 19 73 74
 50 19 73 75
 51 19 76 77
 52 19 76 78
 53 19 79 80
 54 19 79 81
 55 19 82 83
 56 19 82 84
 57 19 85 86
 58 19 85 87
 59 19 88 89
 60 19 88 90


Angles

 1 24 1 2 3
 2 24 4 5 6
 3 24 7 8 9
 4 24 10 11 12
 5 24 13 14 15
 6 24 16 17 18
 7 24 19 20 21
 8 24 22 23 24
 9 24 25 26 27
 10 24 28 29 30
 11 24 31 32 33
 12 24 34 35 36
 13 24 37 38 39
 14 24 40 41 42
 15 24 43 44 45
 16 24 46 47 48
 17 24 49 50 51
 18 24 52 53 54
 19 24 55 56 57
 20 24 58 59 60
 21 24 61 62 63
 22 24 64 65 66
 23 24 67 68 69
 24 24 70 71 72
 25 24 73 74 75
 26 24 76 77 78
 27 24 79 80 81
 28 24 82 83 84
 29 24 85 86 87
 30 24 88 89 90