

1 atoms
0 bonds
0 angles
0 dihedrals
0 impropers

14 atom types
18 bond types
23 angle types
42 dihedral types

0.000000 0.000000 xlo xhi
0.000000 0.000000 ylo yhi
0.000000 0.000000 zlo zhi

Atoms

 1 1 13 0 0 0 0
