LAMMPS data file via write_data, version 29 Oct 2020, timestep = 556

6940 atoms
7230 bonds
11316 angles
19723 dihedrals
0 impropers

14 atom types
18 bond types
23 angle types
42 dihedral types

-19.996832 19.996832 xlo xhi
-19.996832 19.996832 ylo yhi
-45.447348 45.447348 zlo zhi

Masses

 1 12.01
 2 1.008
 3 12.01
 4 16
 5 14.01
 6 1.008
 7 16
 8 14.01
 9 1.008
 10 12.01
 11 14.01
 12 12.01
 13 1.008
 14 16

Pair Coeffs

 1 0.086 3.39967
 2 0.015 2.59964
 3 0.086 3.39967
 4 0.21 2.95992
 5 0.17 3.25
 6 0.0157 1.06908
 7 0.2104 3.06647
 8 0.17 3.25
 9 0 0
 10 0.086 3.39967
 11 0.17 3.25
 12 0.086 3.39967
 13 0.0157 1.06908
 14 0.2104 3.06647

Atoms

 1 1 1 -0.0632 27.0954605415456 -69.5898726629148 32.2402932436145
 2 1 1 -0.0801 27.3802360480133 -68.2661656407819 31.860861249348066
 3 1 1 -0.0632 28.5745770036688 -67.6516243711861 32.275146331580665
 4 1 1 0.0078 27.9966898731868 -70.2994994967186 33.05334853483221
 5 1 1 -0.043 29.1615344129453 -69.657179596266 33.51612438225681
 6 1 1 0.0078 29.4713965453749 -68.35246616314 33.098704202943054
 7 1 2 0.0866 26.1896166818049 -70.0711078949187 31.880292237293006
 8 1 2 0.0839 26.6809502322213 -67.719913814813 31.23537693217526
 9 1 2 0.0866 28.7991202870937 -66.6344123909794 31.96481696977307
 10 1 11 -0.2514 30.6845746514492 -67.7620647400753 33.52606833644433
 11 1 11 -0.2514 27.7642657295341 -71.672673545942 33.333898648853264
 12 1 2 0.0896 29.85685646556 -70.1891802671046 34.15940263181921
 13 1 6 0.1829 26.8028994203507 -71.941131986768 33.50568689418512
 14 1 6 0.1829 30.71859664169 -67.5117134971428 34.50916446014222
 15 1 1 -0.0632 -14.95987658397362 -20.8082631868659 33.04451235044181
 16 1 1 -0.0801 -15.42192784225246 -20.4437066084967 31.77381472620026
 17 1 1 -0.0632 -14.636795985686911 -19.62264289688746 30.951880859893848
 18 1 1 0.0078 -13.685777385926173 -20.4119751614757 33.47261959291058
 19 1 1 -0.043 -12.897459750212747 -19.587798840485167 32.64786447280254
 20 1 1 0.0078 -13.390665342795193 -19.144555597792827 31.40572063772685
 21 1 2 0.0866 -15.584138985093118 -21.4130785797354 33.69095740645771
 22 1 2 0.0839 -16.397042381409626 -20.7802438463254 31.43639381943851
 23 1 2 0.0866 -15.021985733776516 -19.33427745222955 29.978435447205744
 24 1 11 -0.2514 -12.643014910639756 -18.187606775986335 30.663526296072778
 25 1 11 -0.2514 -13.242291519301219 -20.8346555826011 34.74811384072106
 26 1 2 0.0896 -11.919145482076608 -19.26521850098566 32.98768382415101
 27 1 6 0.1829 -13.797775362581785 -20.4912548909643 35.521711354432675
 28 1 6 0.1829 -11.641853477289782 -18.208449893963664 30.808340081603415
 29 1 1 -0.0632 2.5288296968667767 -14.785191505365423 32.33750717323335
 30 1 1 -0.0801 1.521610203977982 -15.122163917938858 31.421734955859876
 31 1 1 -0.0632 0.3539367728481784 -15.760307659982152 31.86643042252957
 32 1 1 0.0078 2.3673873706025463 -15.073850443855902 33.70763925929585
 33 1 1 -0.043 1.2043275498456214 -15.734334691161305 34.139359703478654
 34 1 1 0.0078 0.18822198011683633 -16.071923400739504 33.22647267605749
 35 1 2 0.0866 3.403508840375554 -14.257899205480685 31.973624099988903
 36 1 2 0.0839 1.6449515394355982 -14.877858891568863 30.36995808079939
 37 1 2 0.0866 -0.4252316303426296 -16.01168450422952 31.152348236950417
 38 1 11 -0.2514 -1.0097297381380912 -16.725637421290976 33.61656456823449
 39 1 11 -0.2514 3.274411303511758 -14.629160322083989 34.707329041494795
 40 1 2 0.0896 1.0914019002460942 -15.962594551803088 35.1942610534059
 41 1 6 0.1829 2.8560798890888788 -14.53021208944148 35.62341645178971
 42 1 6 0.1829 -1.5470061879586634 -17.098470526105306 32.845669137878026
 43 1 1 -0.0632 10.251597860733982 -21.2336156186731 19.57136023730202
 44 1 1 -0.0801 9.572339557753144 -20.0515996989324 19.89941784759016
 45 1 1 -0.0632 8.381238700326623 -20.1139234287062 20.63649970510606
 46 1 1 0.0078 9.73008465180189 -22.4795680905079 19.95885386604825
 47 1 1 -0.043 8.523953012341106 -22.5394729814805 20.669544221230183
 48 1 1 0.0078 7.853171330813375 -21.3584802761061 21.017339413125196
 49 1 2 0.0866 11.176836766576352 -21.177580367641 19.008608500007547
 50 1 2 0.0839 9.973156810600514 -19.09291434245731 19.58943915189663
 51 1 2 0.0866 7.857878458403072 -19.202564416677287 20.90229002853538
 52 1 11 -0.2514 6.621739298205666 -21.4263605670808 21.702860226762198
 53 1 11 -0.2514 10.448489911029402 -23.6615499207106 19.67565773159483
 54 1 2 0.0896 8.122397165972325 -23.5004398027179 20.96165293766315
 55 1 6 0.1829 11.398747188778213 -23.6759044080331 20.015738608747736
 56 1 6 0.1829 5.939639899699852 -22.0760468525196 21.329407658365135
 57 1 1 -0.0632 26.439463104329 -17.766734883096703 19.00394452919693
 58 1 1 -0.0801 25.5347693385006 -17.766323911988188 17.928656968174927
 59 1 1 -0.0632 25.7345885812492 -16.912269502067414 16.827002484917525
 60 1 1 0.0078 27.5380836823575 -16.892013334332802 18.990236049040494
 61 1 1 -0.043 27.7324934346323 -16.043736949157648 17.890406133019923
 62 1 1 0.0078 26.8477619140348 -16.055079996391992 16.80362756510067
 63 1 2 0.0866 26.2825913944165 -18.437520866506958 19.844408871500274
 64 1 2 0.0839 24.6786110485775 -18.4338545778631 17.945787338632016
 65 1 2 0.0866 25.0208012807055 -16.912692679892878 16.0089028967077
 66 1 11 -0.2514 27.13137799715 -15.141527501955444 15.761781286415578
 67 1 11 -0.2514 28.4781206018077 -16.887666540822885 20.048652322274275
 68 1 2 0.0896 28.591153848521 -15.377904212399457 17.872640214198075
 69 1 6 0.1829 28.8180298643176 -17.79446365346097 20.34418354889893
 70 1 6 0.1829 27.747493945219 -14.40051460635653 16.05966126356097
 71 1 1 -0.0632 -32.6057274926638 -41.9794609797989 19.520015069646792
 72 1 1 -0.0801 -32.4487575220694 -40.5929966319462 19.383229300081425
 73 1 1 -0.0632 -31.5094238606125 -39.9105715967464 20.171404055636106
 74 1 1 0.0078 -31.8215980681147 -42.6826140720836 20.447450758000713
 75 1 1 -0.043 -30.9366251465655 -41.9874154050532 21.28616296440474
 76 1 1 0.0078 -30.7402094875266 -40.6103488323484 21.119419048091917
 77 1 2 0.0866 -33.3014643993503 -42.5090030325196 18.874522146999237
 78 1 2 0.0839 -33.0335398169609 -40.0525749188826 18.645356994035442
 79 1 2 0.0866 -31.364954871049 -38.8485758870583 20.01462532667815
 80 1 11 -0.2514 -29.6693432233197 -40.016175931642 21.827008562700595
 81 1 11 -0.2514 -31.8633686280861 -44.0940123810695 20.46402242196536
 82 1 2 0.0896 -30.3299849235515 -42.5350328766686 22.002469039867925
 83 1 6 0.1829 -32.7927378742755 -44.4874805685639 20.562468200546334
 84 1 6 0.1829 -28.9556405160455 -40.6602690885767 22.137788031165744
 85 1 1 -0.0632 -30.7452878706743 -32.0786586760212 39.657783969119116
 86 1 1 -0.0801 -29.5595233582989 -31.3287622454175 39.68295399174954
 87 1 1 -0.0632 -28.3439585957626 -31.9264442674696 39.31679532216584
 88 1 1 0.0078 -30.7197971234665 -33.4257846719984 39.25767126583836
 89 1 1 -0.043 -29.4999613341084 -34.0213667615592 38.892787653985536
 90 1 1 0.0078 -28.3066947102854 -33.2755621795849 38.923334672823046
 91 1 2 0.0866 -31.6857185665555 -31.6081335235976 39.926757223140946
 92 1 2 0.0839 -29.580426742989 -30.2828094057338 39.97656729145221
 93 1 2 0.0866 -27.4376911374227 -31.3320226871201 39.31557789306345
 94 1 11 -0.2514 -27.1110766932109 -33.8792842875503 38.45803890143319
 95 1 11 -0.2514 -31.9341021731575 -34.1475557808586 39.14792869134017
 96 1 2 0.0896 -29.4834621757482 -35.0575808789612 38.56739098926168
 97 1 6 0.1829 -32.2986862074777 -34.2519879596614 38.21117426684728
 98 1 6 0.1829 -27.2440719515274 -34.5351449593914 37.70262186588497
 99 1 1 -0.0632 0.7560850080501472 -10.243556427350525 32.4670799110728
 100 1 1 -0.0801 1.3694629149956106 -11.284113472385915 33.1781206946696
 101 1 1 -0.0632 2.7245544219211473 -11.567821765514399 32.96156443664645
 102 1 1 0.0078 1.5013784873483769 -9.491621167619224 31.54506248180575
 103 1 1 -0.043 2.8384481117366214 -9.835661434604583 31.279758046462973
 104 1 1 0.0078 3.4524904171388155 -10.877361253267532 31.98332790420156
 105 1 2 0.0866 -0.27901436993211964 -9.998568576584296 32.67124328656807
 106 1 2 0.0839 0.8056424557741968 -11.851426204793672 33.91361246031976
 107 1 2 0.0866 3.208051781130447 -12.33771801469529 33.53761939966227
 108 1 11 -0.2514 4.782827661959827 -11.249897702491376 31.678288533733834
 109 1 11 -0.2514 0.9566853271088908 -8.32576860826539 30.959564539499315
 110 1 2 0.0896 3.412312084047187 -9.272964971578212 30.553361204873095
 111 1 6 0.1829 0.7843003169546605 -7.575619243692 31.616171330101764
 112 1 6 0.1829 4.960733906743605 -11.524296245744802 30.72264148670469
 113 1 1 -0.0632 -3.340391630914672 -18.760082834545592 41.30726882496532
 114 1 1 -0.0801 -2.391607251073147 -18.135519827702733 42.13143653642191
 115 1 1 -0.0632 -2.710489445118311 -16.935196330425676 42.78839945126892
 116 1 1 0.0078 -4.60819788372456 -18.182041051329712 41.13847788021392
 117 1 1 -0.043 -4.923153939949019 -16.97491249486466 41.7834163933319
 118 1 1 0.0078 -3.9719815142966652 -16.342274773825263 42.60138593463299
 119 1 2 0.0866 -3.089101502352806 -19.683595043041304 40.79294894519323
 120 1 2 0.0839 -1.4040878227851692 -18.572412668427628 42.24455182607472
 121 1 2 0.0866 -1.9557273316941717 -16.432641923466175 43.38846678465577
 122 1 11 -0.2514 -4.185050595847503 -15.013058898083862 43.03665935237939
 123 1 4 -0.2514 -5.552188855560518 -18.793600053528458 40.28947854530821
 124 1 2 0.0896 -5.882585103962515 -16.50326740719063 41.5955990662346
 125 1 6 0.1829 -5.2139943726001 -19.56371381544923 39.72128966697298
 126 1 6 0.1829 -3.931371603403283 -14.313326460213135 42.35369963893611
 127 1 1 -0.0632 8.45822887231483 16.968769333173086 6.7611315593124255
 128 1 1 -0.0801 7.613826996665082 16.66248444620945 7.841179983781761
 129 1 1 -0.0632 6.966301070327924 17.694237247883105 8.540999584838715
 130 1 1 0.0078 8.654378818952615 18.306107404472243 6.3804909275737804
 131 1 1 -0.043 8.009557094642878 19.33667489423569 7.083425090055902
 132 1 1 0.0078 7.164845232225414 19.033867983608005 8.163245864035877
 133 1 2 0.0866 8.956526631551352 16.1697259292616 6.219453054937852
 134 1 2 0.0839 7.456674398177341 15.627054347026194 8.131319299185494
 135 1 2 0.0866 6.299213162349269 17.450203080047704 9.362163617326788
 136 1 4 -0.2514 6.50007744506422 -19.91756300397122 8.84567434200865
 137 1 4 -0.2514 9.501126337157828 18.61724807558574 5.2945727141175585
 138 1 2 0.0896 8.150112098353436 -19.62520610368445 6.779292618694538
 139 1 6 0.1829 9.617115154161867 17.888632055371108 4.598759883146804
 140 1 6 0.1829 5.793401192355543 19.791649361901154 9.51460732861812
 141 1 1 -0.0632 -5.936815797746599 -2.0630362698777818 44.01648186715809
 142 1 1 -0.0801 -5.12962842640033 -0.9180987312075023 44.049881344316624
 143 1 1 -0.0632 -3.9413810530431053 -0.8668675774677554 43.30176022745687
 144 1 1 0.0078 -5.518143235054761 -3.1919664682468927 43.30253536300687
 145 1 1 -0.043 -4.318956995673384 -3.1523630335440416 42.569261707408764
 146 1 1 0.0078 -3.5483310740551848 -1.9766016258198906 42.537551255951705
 147 1 2 0.0866 -6.866763456340201 -2.0921155939114886 44.57807935223788
 148 1 2 0.0839 -5.445806924022579 -0.06510992995389282 44.63721490018136
 149 1 2 0.0866 -3.3408051885679426 0.03880816996407392 43.29585690026645
 150 1 4 -0.2514 -2.399009904514418 -1.8963303875491215 41.719060241440246
 151 1 4 -0.2514 -6.301739564566849 -4.3623919740804515 43.36251438465104
 152 1 2 0.0896 -3.9935500412070843 -4.02430262852409 42.01390003289418
 153 1 6 0.1829 -6.044356463758924 -5.111074411656784 42.729869089364456
 154 1 6 0.1829 -2.0764040495647813 -0.9605556324541481 41.48653028262962
 155 1 1 -0.0632 3.287701810879996 -70.172518442372 26.631084023940698
 156 1 1 -0.0801 4.172795627041415 -71.2356199106209 26.843403674233386
 157 1 1 -0.0632 5.111978656325723 -71.1592707082175 27.878840608715805
 158 1 1 0.0078 3.328547911290619 -69.0399695145041 27.46522039496008
 159 1 1 -0.043 4.286769347486418 -68.9617197241597 28.49198010784378
 160 1 1 0.0078 5.183016921109326 -70.0214375282683 28.69902503029713
 161 1 2 0.0866 2.563634523088405 -70.2428647315788 25.82805571318476
 162 1 2 0.0839 4.124355970848858 -72.1194487063035 26.215273585271802
 163 1 2 0.0866 5.772115218026017 -71.9955424628729 28.061410733740143
 164 1 11 -0.2514 6.107268878033903 -69.9881196393866 29.77137746583405
 165 1 11 -0.2514 2.407658118372959 -67.9768558842628 27.31026725162117
 166 1 2 0.0896 4.320625157244707 -68.0924930261907 29.143092423189888
 167 1 6 0.1829 2.7468085466155223 -67.0697316630002 27.598895594173
 168 1 6 0.1829 5.727493161022299 -69.7879448729597 30.68763470105652
 169 1 1 -0.0632 -3.370311166153345 -19.40163255304851 9.960164011046652
 170 1 1 -0.0801 -2.009390258740727 -19.077292015655562 9.877303415930891
 171 1 1 -0.0632 -1.165685374494176 -19.82203159250225 9.041035279623507
 172 1 1 0.0078 -3.8939273263526895 -20.4717411638412 9.209285526598464
 173 1 1 -0.043 -3.0541674776302625 -21.18721877832 8.34210765986448
 174 1 1 0.0078 -1.6816868689417064 -20.878927621691 8.27146387783667
 175 1 2 0.0866 -4.0075772782594035 -18.853862144466998 10.647606509161843
 176 1 2 0.0839 -1.605733272859832 -18.26934394993549 10.480250585268891
 177 1 2 0.0866 -0.10546016761486807 -19.585343423481564 9.001653157205268
 178 1 11 -0.2514 -0.7776146919963213 -21.6450143262928 7.494460404758288
 179 1 11 -0.2514 -5.234252979557788 -20.8984538655191 9.404208715153377
 180 1 2 0.0896 -3.4597040269772736 -22.0207740965795 7.7784526842297685
 181 1 6 0.1829 -5.833485826238672 -20.8925626585751 8.585531038300271
 182 1 6 0.1829 0.16753520841773398 -21.6819916902355 7.852717580410849
 183 1 1 -0.0632 -38.7421077185311 -36.3708622010493 37.46952813655325
 184 1 1 -0.0801 -39.1429797479435 -35.2477838645577 38.20039548860367
 185 1 1 -0.0632 -39.7194254180385 -35.4062199955452 39.46632686057562
 186 1 1 0.0078 -38.8853970608215 -37.6597701542795 38.02343938604167
 187 1 1 -0.043 -39.4578681323347 -37.8052115259258 39.29638024770084
 188 1 1 0.0078 -39.9007293044384 -36.6832355386037 40.01441238654595
 189 1 2 0.0866 -38.2946105433791 -36.2069669285776 36.498064358944575
 190 1 2 0.0839 -38.9955826111572 -34.2572964822564 37.78606427419856
 191 1 2 0.0866 -40.0059545291253 -34.534620383845 40.03697673272847
 192 1 11 -0.2514 -40.4619351974755 -36.7661357190902 41.31134527894154
 193 1 11 -0.2514 -38.4432611686207 -38.8487618840962 37.39276416312528
 194 1 2 0.0896 -39.5315403135229 -38.7964830551404 39.72886432090026
 195 1 6 0.1829 -38.6293890441246 -39.6852722579712 37.931724000508325
 196 1 6 0.1829 -40.3956954693518 -35.902066290698 41.83743832519644
 197 1 1 -0.0632 25.4304275258665 -68.3208715775228 39.354807667518685
 198 1 1 -0.0801 25.5566019820519 -67.5344334940725 40.507877378632436
 199 1 1 -0.0632 25.6251584834118 -68.145862268185 41.768058393598515
 200 1 1 0.0078 25.38483409411 -69.7190596940668 39.458047351749975
 201 1 1 -0.043 25.5424597610429 -70.3307270395842 40.71459007314696
 202 1 1 0.0078 25.6232301059775 -69.5507631570891 41.884253137023165
 203 1 2 0.0866 25.2991927246399 -67.8436402879371 38.387822730924476
 204 1 2 0.0839 25.555431812835 -66.4509194688942 40.428980068697406
 205 1 2 0.0866 25.6348644767267 -67.513412576028 42.647774023768136
 206 1 11 -0.2514 25.517694545082 -70.2027535222543 43.146205249289444
 207 1 11 -0.2514 24.9284067661796 -70.4735416880436 38.350793938989085
 208 1 2 0.0896 25.4817005952702 -71.4123123260181 40.793019791143834
 209 1 6 0.1829 23.9258569308817 -70.5911352814122 38.303658725986864
 210 1 6 0.1829 25.0148421378147 -71.0797227521768 43.125306280064144
 211 1 1 -0.0632 31.389432598355 -8.0636713356827 14.19610829723044
 212 1 1 -0.0801 32.0664227543248 -7.145217225215633 15.014217450370964
 213 1 1 -0.0632 33.0413108842457 -7.591072399424612 15.920493132380866
 214 1 1 0.0078 31.6787981363101 -9.43304027681747 14.295870780560282
 215 1 1 -0.043 32.7087874596185 -9.865607783492026 15.152640198926969
 216 1 1 0.0078 33.3722169064835 -8.956719784599876 15.986920206473819
 217 1 2 0.0866 30.5904021252611 -7.7213812987186055 13.545057349581613
 218 1 2 0.0839 31.8111050475541 -6.092624712349539 14.972832578972096
 219 1 2 0.0866 33.5096521112985 -6.881391361492669 16.59636982845568
 220 1 11 -0.2514 34.2182679272588 -9.454797950717936 17.010419023024067
 221 1 11 -0.2514 30.8288620944916 -10.37974899455344 13.670001564573804
 222 1 2 0.0896 32.9057468680894 -10.925720976942662 15.267312662856172
 223 1 6 0.1829 30.5252665402777 -10.16925638648516 12.728023067301953
 224 1 6 0.1829 34.9367037866334 -10.110360007996622 16.731997675315824
 225 1 1 -0.0632 60.822379563133 -42.0739488334417 39.61148782417458
 226 1 1 -0.0801 60.3348870526881 -41.5483987709948 38.40710796182506
 227 1 1 -0.0632 59.8695913317704 -42.4107323149482 37.403083928409586
 228 1 1 0.0078 60.8389075244591 -43.4609910889433 39.821709667633144
 229 1 1 -0.043 60.3380932489855 -44.3233331476375 38.82723184987852
 230 1 1 0.0078 59.8930828439393 -43.8021071000135 37.59811847137987
 231 1 2 0.0866 61.1971441531172 -41.4034589688831 40.37801870983774
 232 1 2 0.0839 60.3252142332049 -40.4739373772409 38.24744483016191
 233 1 2 0.0866 59.507057791649 -41.9919288295215 36.46921348435944
 234 1 11 -0.2514 59.4766632625234 -44.6504890233981 36.541162840747
 235 1 11 -0.2514 61.3932880520575 -43.9553776682636 41.02717981824323
 236 1 2 0.0896 60.3321202101838 -45.3967947172999 38.99244626484568
 237 1 6 0.1829 61.1902494278192 -43.4126491599421 41.859302724626566
 238 1 6 0.1829 58.5953118715946 -44.3889265874715 36.11951541477304
 239 1 1 -0.0632 29.6195360957896 7.47008172652079 44.863279641801206
 240 1 1 -0.0801 28.756533950613 7.908533360495603 45.8787569605201
 241 1 1 -0.0632 28.1047825740518 6.971765901826586 46.6959038679194
 242 1 1 0.0078 29.843756938776 6.0967342391469845 44.66960420027915
 243 1 1 -0.043 29.2136090921731 5.1666331261345055 45.5137956275369
 244 1 1 0.0078 28.3111447776297 5.594770532108919 46.5062279736168
 245 1 2 0.0866 30.1251996440042 8.198430936953264 44.23718179083894
 246 1 2 0.0839 28.5941422521476 8.971611552262832 46.0345157688214
 247 1 2 0.0866 27.4507117988405 7.317182747978097 47.4909528535636
 248 1 11 -0.2514 27.6693230416112 4.690650472493908 47.394878713575
 249 1 11 -0.2514 30.7513463301998 5.69182997873264 43.658973637963136
 250 1 2 0.0896 29.4523027936073 4.114410916682638 45.41310756026279
 251 1 6 0.1829 31.4541197757452 6.378863027510919 43.42791040700263
 252 1 6 0.1829 27.5198704693612 5.057338017295846 48.3264344937274
 253 1 1 -0.0632 -22.0630722281209 -32.3209214417347 26.48614080574836
 254 1 1 -0.0801 -21.8963232562439 -33.7137673583046 26.39589209397589
 255 1 1 -0.0632 -22.7958111465003 -34.5745289031473 27.050806216989105
 256 1 1 0.0078 -23.1348353824815 -31.7868476220963 27.217582130870667
 257 1 1 -0.043 -24.02092360524 -32.6473685390111 27.88437335802306
 258 1 1 0.0078 -23.8551971093866 -34.0420481078604 27.807202714845882
 259 1 2 0.0866 -21.3703318665742 -31.6551261441454 25.983230763247718
 260 1 2 0.0839 -21.0727063588052 -34.12375836061 25.81677305009691
 261 1 2 0.0866 -22.671677535903 -35.6509116835975 26.9664923717282
 262 1 11 -0.2514 -24.805487095505 -34.8959272580221 28.42268603412338
 263 1 11 -0.2514 -23.3325035024765 -30.3874190897227 27.28516316879679
 264 1 2 0.0896 -24.8514983803143 -32.2292385897767 28.447211681095848
 265 1 6 0.1829 -22.6955783111877 -29.87407817169 27.88253968339793
 266 1 6 0.1829 -25.315500268236 -35.500905150581 27.791497917481195
 267 1 1 -0.0645 -8.463993162802367 18.42004725411825 -40.68317413626781
 268 1 1 -0.0801 -8.031825011084372 18.176331601069943 -39.36942885772848
 269 1 1 -0.0632 -6.677231685058573 17.90475389947028 -39.11546345448924
 270 1 1 -0.0091 -7.547875172378736 18.375948009516694 -41.74711291943212
 271 1 1 -0.0444 -6.199525056387521 18.075365437906502 -41.49288662372309
 272 1 1 0.0077 -5.759135826755705 17.85550198288318 -40.176929963179674
 273 1 2 0.0866 -9.511834541131226 18.63952455040295 -40.87454737993982
 274 1 2 0.0839 -8.745532641820596 18.20038160421338 -38.55145915827329
 275 1 2 0.0866 -6.342583723182304 17.732909982615745 -38.09827467215202
 276 1 4 -0.2514 -4.3945940017374365 17.61279775188973 -39.92061621503431
 277 1 8 -0.3506 -7.977584697018029 18.629309462789198 -43.038718997270806
 278 1 2 0.0896 -5.49063425458131 18.022849744727488 -42.314729516857966
 279 1 6 0.157 -7.373095392633703 18.36206288795864 -43.80735766024312
 280 1 6 0.1829 -4.166706840378689 17.156144677718018 -39.042322194498084
 281 1 1 -0.0632 12.9999549829785 -29.8816976965249 13.02957025166449
 282 1 1 -0.0801 13.198911193999802 -31.0155490033004 12.222238017132769
 283 1 1 -0.0632 13.173414473077647 -32.3005292901701 12.792274957889912
 284 1 1 0.0078 12.772083436270883 -30.0348928764071 14.407799141568656
 285 1 1 -0.043 12.737867973290156 -31.3190910414529 14.97087144784738
 286 1 1 0.0078 12.950085267115673 -32.4533428012319 14.171343870668258
 287 1 2 0.0866 13.044989595692494 -28.8893716207107 12.590318332491991
 288 1 2 0.0839 13.380821995040279 -30.897159189718 11.15859182706271
 289 1 2 0.0866 13.335980938393366 -33.1740098768033 12.16644612550533
 290 1 11 -0.2514 12.922865325810875 -33.7435583939461 14.75289400754391
 291 1 11 -0.2514 12.678708470846951 -28.912474167885 15.261095642443824
 292 1 2 0.0896 12.573234463407365 -31.4325189530869 16.038251822128025
 293 1 6 0.1829 13.535487928012635 -28.3869851911525 15.383825732611758
 294 1 6 0.1829 12.416716585273429 -34.452432666775 14.233220575362058
 295 1 1 -0.0632 71.7477141299983 -53.8616215837777 49.5146418151372
 296 1 1 -0.0801 72.8632813923768 -53.1848017225838 50.0328492896382
 297 1 1 -0.0632 72.8429785794502 -51.7875770904102 50.1708317010513
 298 1 1 0.0078 70.6032039328683 -53.1387120003332 49.1256864720169
 299 1 1 -0.043 70.5861873892137 -51.7409311873806 49.2820903577149
 300 1 1 0.0078 71.6953542085622 -51.0548432011527 49.8071019279969
 301 1 2 0.0866 71.7969378373351 -54.9371351130521 49.3774772979044
 302 1 2 0.0839 73.7505259977935 -53.7412921263658 50.3198200184015
 303 1 2 0.0866 73.7277373822109 -51.2846779566165 50.5490270429967
 304 1 11 -0.2514 71.6270693620615 -49.6356276857045 49.9017533018818
 305 1 11 -0.2514 69.5139483342471 -53.7426267830609 48.441324058908
 306 1 2 0.0896 69.7163691121749 -51.1791562399074 48.9549527800475
 307 1 6 0.1829 69.0326951155125 -53.1257758424132 47.8010525883286
 308 1 6 0.1829 70.9907565697164 -49.1969276373843 49.251123930773
 309 1 1 -0.0632 -41.2822924836961 -32.0839705336834 27.25126033666385
 310 1 1 -0.0801 -41.1599086479286 -31.7350489411273 28.600194422918623
 311 1 1 -0.0632 -41.7717615111921 -32.5302899932276 29.57783741944366
 312 1 1 0.0078 -42.0032482105443 -33.2294482709604 26.876350072577104
 313 1 1 -0.043 -42.6526342954694 -34.0015047889735 27.862174330942576
 314 1 1 0.0078 -42.506397047988 -33.6730006228361 29.222756615472576
 315 1 2 0.0866 -40.8221479402833 -31.4553519649242 26.493806204341116
 316 1 2 0.0839 -40.6102398027348 -30.8400959438079 28.88349009282973
 317 1 2 0.0866 -41.7111456365853 -32.2296109722219 30.616970596047175
 318 1 11 -0.2514 -43.1498109697406 -34.3959019197998 30.260823298696153
 319 1 11 -0.2514 -42.0961932487587 -33.5123970559778 25.491238002560507
 320 1 2 0.0896 -43.2720480232811 -34.8447250653686 27.57478363006792
 321 1 6 0.1829 -42.1696666879885 -32.687929182649 24.90926397172443
 322 1 6 0.1829 -43.3181998790792 -33.8531072637898 31.098517672797378
 323 1 1 -0.0632 9.308974471994695 -58.9243947486655 29.718711687267856
 324 1 1 -0.0801 10.234950170815374 -58.606918465502 28.713213916275027
 325 1 1 -0.0632 11.60379440745041 -58.5445161889773 29.010899794663764
 326 1 1 0.0078 9.754077049998012 -59.1914421651825 31.02759405719271
 327 1 1 -0.043 11.127575026548616 -59.1039585588084 31.32525061919819
 328 1 1 0.0078 12.058101646133375 -58.7878505221822 30.316806084972733
 329 1 2 0.0866 8.251223569096235 -58.9604192196861 29.475150702163145
 330 1 2 0.0839 9.894412781162991 -58.416803128294 27.701982258661143
 331 1 2 0.0866 12.314336685266085 -58.329201758756 28.219653770908163
 332 1 11 -0.2514 13.455455565402588 -58.8074357224484 30.564445609044082
 333 1 11 -0.2514 8.848141818866926 -59.5143156450756 32.07119859811278
 334 1 2 0.0896 11.47530412605884 -59.312792433087 32.333903901390585
 335 1 6 0.1829 9.12218453860735 -59.1758376698449 32.984820011412026
 336 1 6 0.1829 14.017014008288173 -59.2337903581832 29.83781684424429
 337 1 1 -0.0632 7.815376561314411 -11.758937579165197 42.73212069216899
 338 1 1 -0.0801 6.754023928739441 -11.163165366145437 42.03364369649119
 339 1 1 -0.0632 5.511767945261516 -10.974760676054423 42.662315777582975
 340 1 1 0.0078 7.637116469995916 -12.184338130234073 44.05811945752891
 341 1 1 -0.043 6.393301307156646 -11.986430693620823 44.68506171494114
 342 1 1 0.0078 5.330224085566457 -11.382708864311832 43.99300013973789
 343 1 2 0.0866 8.770346262013117 -11.903609307686143 42.239639298432145
 344 1 2 0.0839 6.897592198212006 -10.850994899989752 41.00511957623601
 345 1 2 0.0866 4.695387095939064 -10.511387888984704 42.11999405127582
 346 1 4 -0.2514 4.092521199139246 -11.167724535537081 44.64149256315878
 347 1 11 -0.2514 8.712010745454588 -12.800522742122816 44.75251891024522
 348 1 2 0.0896 6.2560015225746595 -12.302239566276137 45.7108525502032
 349 1 6 0.1829 9.568265525609455 -12.258936396698797 44.803652402371206
 350 1 6 0.1829 3.3368772102314965 -10.817484804926146 44.06446582926751
 351 1 1 -0.0632 39.674830116217 -53.9200289908854 47.2632833651654
 352 1 1 -0.0801 39.4693926183017 -55.2108368215941 46.7477768792834
 353 1 1 -0.0632 40.3128864495903 -55.7105837885187 45.7445765536935
 354 1 1 0.0078 40.7349055432157 -53.1218376337309 46.783581905926
 355 1 1 -0.043 41.5434559907627 -53.6184530745986 45.7497241049778
 356 1 1 0.0078 41.3566368031869 -54.9149455570097 45.254582025536294
 357 1 2 0.0866 39.0192499874032 -53.570471978156 48.0511143969578
 358 1 2 0.0839 38.672710861683 -55.8334661914009 47.1423536907889
 359 1 2 0.0866 40.174354488981 -56.717004458786 45.3655112343835
 360 1 4 -0.2514 42.2627445471139 -55.4310780597489 44.31017400690227
 361 1 11 -0.2514 41.1112197819594 -51.8693508382055 47.3445018338823
 362 1 2 0.0896 42.3752541877287 -53.0256917189185 45.382872903288686
 363 1 6 0.1829 41.8105978699244 -51.3754477772021 46.8063510528274
 364 1 6 0.1829 43.0040695901891 -54.7972885861915 44.031716195581865
 365 1 1 -0.0632 -2.838772439831658 15.45007642032772 -41.871482107835085
 366 1 1 -0.0801 -4.133141564312675 15.144328850840056 -42.32526499338259
 367 1 1 -0.0632 -4.308811553455427 14.44241561449004 -43.52840195101207
 368 1 1 0.0078 -1.7177538660225817 15.128885656389047 -42.6601386544305
 369 1 1 -0.043 -1.9001257754814567 14.417089799529455 -43.85555373978365
 370 1 1 0.0078 -3.1860266330187197 14.051708134898618 -44.274100950781694
 371 1 2 0.0866 -2.7080119292936917 15.937330192478772 -40.91087767061985
 372 1 2 0.0839 -4.998561689441532 15.423348667572307 -41.73179682343105
 373 1 2 0.0866 -5.307633814153415 14.171206170092272 -43.85918147618864
 374 1 4 -0.2514 -3.337967874824942 13.26135244177997 -45.42807104171809
 375 1 11 -0.2514 -0.39163127756634597 15.416944477221724 -42.25261944125729
 376 1 2 0.0896 -1.0388944135813212 14.122434453177378 -44.44780328191246
 377 1 6 0.1829 0.26490582499608056 14.668926286545107 -42.435532120894436
 378 1 6 0.1829 -4.287477928882029 13.18650696272798 45.117306132664226
 379 1 1 -0.0632 -11.803020801293082 -9.57618749763523 27.45023827165259
 380 1 1 -0.0801 -11.84817749297776 -8.242105482163133 27.03202752696256
 381 1 1 -0.0632 -11.85037602750175 -7.931943772583482 25.666309378846666
 382 1 1 0.0078 -11.76104916551808 -10.614253127444831 26.503664153182285
 383 1 1 -0.043 -11.789970060915753 -10.300170138044717 25.128100989031747
 384 1 1 0.0078 -11.829406990700237 -8.95575083152762 24.697896260680146
 385 1 2 0.0866 -11.767310941734339 -9.795633716011462 28.513021452613966
 386 1 2 0.0839 -11.86406469288851 -7.448884584289105 27.77028466539633
 387 1 2 0.0866 -11.828897899149892 -6.888334957402632 25.37175701093283
 388 1 11 -0.2514 -11.72310550892959 -8.64055203613063 23.309698440059737
 389 1 11 -0.2514 -11.582897443969438 -11.955190339944052 26.93922479271006
 390 1 2 0.0896 -11.734406073309584 -11.099439766335301 24.394271931168927
 391 1 6 0.1829 -10.910765571928252 -12.504497707962276 26.417920849886585
 392 1 6 0.1829 -11.143298174327523 -9.26633921204895 22.76378850881144
 393 1 1 -0.0632 22.9354535591346 -5.2871137561024675 51.1822341423278
 394 1 1 -0.0801 23.2522022465729 -3.9987745050671535 51.6437751610524
 395 1 1 -0.0632 24.5547101721496 -3.500902871044693 51.4911041738664
 396 1 1 0.0078 23.9150482221931 -6.08035376250283 50.5569053669206
 397 1 1 -0.043 25.2048971536324 -5.55372149074756 50.3568006779828
 398 1 1 0.0078 25.531858443157 -4.284331885936888 50.8604263813809
 399 1 2 0.0866 21.9345496289819 -5.677700097794392 51.3419987243289
 400 1 2 0.0839 22.4941970220838 -3.3926307129078594 52.1327683526015
 401 1 2 0.0866 24.8101506458115 -2.5186858717340517 51.8793827114932
 402 1 4 -0.2514 26.86042897494 -3.8238558865652523 50.8014267274015
 403 1 11 -0.2514 23.5965403360067 -7.421552597396716 50.2160402371678
 404 1 2 0.0896 25.9701215391061 -6.147461105151615 49.8649378929832
 405 1 6 0.1829 22.6281066068085 -7.5840589145526085 49.976111844513
 406 1 6 0.1829 26.9762776265981 -2.819150889904374 50.7231046951797
 407 1 1 -0.0632 -48.7297013493512 -37.8971469410359 48.1230372335368
 408 1 1 -0.0801 -49.1050363234919 -37.40840058054 49.38594810092
 409 1 1 -0.0632 -49.0772809486116 -36.0277239016606 49.6419044047155
 410 1 1 0.0078 -48.3143111436762 -37.01037696391 47.1142247431561
 411 1 1 -0.043 -48.3031865956844 -35.6283198788079 47.3744668969245
 412 1 1 0.0078 -48.6890240368443 -35.1370301381892 48.6301725667691
 413 1 2 0.0866 -48.7696515306948 -38.9645931046635 47.9262286311805