LAMMPS data file via write_data, version 29 Oct 2020, timestep = 27

6940 atoms
14 atom types
7188 bonds
18 bond types
11190 angles
23 angle types
19555 dihedrals
42 dihedral types

-21.118325 21.118325 xlo xhi
-21.118325 21.118325 ylo yhi
-47.996192 47.996192 zlo zhi

Masses

1 12.01
2 1.008
3 12.01
4 16
5 14.01
6 1.008
7 16
8 14.01
9 1.008
10 12.01
11 14.01
12 12.01
13 1.008
14 16

Pair Coeffs # lj/cut/coul/long/omp

1 0.086 3.39967
2 0.015 2.59964
3 0.086 3.39967
4 0.21 2.95992
5 0.17 3.25
6 0.0157 1.06908
7 0.2104 3.06647
8 0.17 3.25
9 0 0
10 0.086 3.39967
11 0.17 3.25
12 0.086 3.39967
13 0.0157 1.06908
14 0.2104 3.06647

Atoms # full

1872 1 11 -0.2514 -0.0022782685243290736 -19.1087910763339 -45.2682051295442 0 0 0
1017 1 2 0.0866 -20.371021271385302 -20.315550650831792 -43.82654541890712 0 0 0
1022 1 6 0.1829 -20.433248779961826 -20.889691733507576 -41.50158195489193 0 0 0
2669 1 2 0.0866 -16.988021753898643 -20.82291833014745 -44.65777683726357 0 0 0
2670 1 4 -0.2514 -17.35458802969657 -20.363046672408803 -42.049139269715035 0 0 0
2674 1 6 0.1829 -17.117182526550444 -19.570428327411655 -42.6330996599292 0 0 0
3417 1 1 -0.0632 -16.745596436675157 -12.809453076240459 -47.202243272333234 0 0 0
3418 1 1 -0.0801 -16.80467303223215 -14.186276593624438 -46.93434012423172 0 0 0
3419 1 1 -0.0632 -17.729960689263702 -14.996970657541743 -47.61234596898013 0 0 0
3423 1 2 0.0866 -16.018946392400938 -12.188528301501922 -46.68462313419901 0 0 0
3424 1 2 0.0839 -16.13180049181729 -14.625610166552487 -46.2026703806216 0 0 0
3425 1 2 0.0866 -17.764591643721868 -16.063137597835926 -47.400865476736314 0 0 0
6462 1 3 -0.2734 -21.044423399147178 -17.291825351945043 -47.19081004529539 0 0 0
6463 1 4 -0.2763 -20.793129729085727 -18.45469429813877 -47.45314578270505 0 0 0
6644 5 13 0.0 -15.604954428543527 -17.852772563159153 -37.038950037379635 0 0 0
120 1 2 0.0839 -4.870961312752043 -20.95379500705388 -44.85092618296923 0 0 0
449 1 1 -0.0632 -8.024891255135243 -12.568460594874121 -45.31226693536175 0 0 0
450 1 1 -0.0801 -8.580455252837716 -13.47958337608831 -46.22470882956119 0 0 0
451 1 1 -0.0632 -7.979893161097806 -13.670146244236102 -47.4803757181915 0 0 0
452 1 1 0.0078 -6.879650969300397 -11.837347394843684 -45.66382702415042 0 0 0
453 1 1 -0.043 -6.303238781420485 -12.000704532626239 -46.93456373621494 0 0 0
454 1 1 0.0078 -6.833103600102593 -12.93913436054709 -47.837331413811704 0 0 0
455 1 2 0.0866 -8.474645256259597 -12.437326658552974 -44.33193949276973 0 0 0
456 1 2 0.0839 -9.462017632641523 -14.052949859449157 -45.95127268485038 0 0 0
459 1 4 -0.2514 -6.293109190616618 -10.951800000246514 -44.734990860646874 0 0 0
460 1 2 0.0896 -5.4165728972691465 -11.436573321040271 -47.19626669717353 0 0 0
1863 1 1 -0.0632 -1.5351828766747655 -15.300472866709553 -44.266365472154476 0 0 0
1864 1 1 -0.0801 -2.3034119186955015 -16.44922484073635 -44.02470216152721 0 0 0
1865 1 1 -0.0632 -1.807199498262249 -17.711633716698252 -44.38360978487915 0 0 0
1866 1 1 0.0078 -0.2635467261431521 -15.412243514206017 -44.85235676061065 0 0 0
1868 1 1 0.0078 -0.5616187186733719 -17.82901744211724 -45.02548911025908 0 0 0
1869 1 2 0.0866 -1.8961114581141876 -14.331820654235774 -43.932329331779044 0 0 0
1870 1 2 0.0839 -3.264663548632719 -16.36549416242908 -43.525418319728566 0 0 0
1871 1 2 0.0866 -2.374195215090615 -18.600461184795076 -44.12371606418509 0 0 0
4078 1 2 0.0872 -3.2483422627071876 -10.959420181512932 -46.89318654063044 0 0 0
4087 1 9 0.2886 -2.8123189505936685 -12.539220191781531 -47.46256474063627 0 0 0
4448 1 1 0.0278 -1.2201721661852694 -19.643267108545498 -47.39217055323699 0 0 0
4449 1 1 -0.0531 -2.5768020577384307 -19.40235849637454 -47.10285756379611 0 0 0
4453 1 2 0.0871 -2.913330575624424 -19.399954760397463 -46.07442204299085 0 0 0
4454 1 10 0.2266 -0.20802750477939225 -19.976071690090354 -46.32954988543289 0 0 0
4455 1 12 0.2266 -4.968712847955303 -18.987953077357812 -47.79569652448553 0 0 0
4459 1 4 -0.2763 -5.415907292236607 -19.09952791658915 -46.66595688143507 0 0 0
6793 128 9 0.0 -4.746216675480465 -11.278150993609154 -42.2477595937827 0 0 0
393 1 1 -0.0632 -21.078056651843482 -10.12464395737287 -47.87985108186057 0 0 0
399 1 2 0.0866 -21.030084388496718 -10.400879594473022 -46.83038160806316 0 0 0
400 1 2 0.0839 -20.486017209405478 -8.074766313564082 -47.52345462838142 0 0 0
881 1 6 0.1829 -21.059849230708274 -8.016814727365734 -44.27377414235954 0 0 0
1681 1 1 -0.0632 -12.47581261701106 -7.084716899979426 -44.66062701810024 0 0 0
1682 1 1 -0.0801 -11.501603291924862 -6.762571444960429 -43.70233833153888 0 0 0
1684 1 1 0.0078 -12.263744179798096 -8.150377753216043 -45.55100768851051 0 0 0
1685 1 1 -0.043 -11.082238818302303 -8.908376659324027 -45.467537859884516 0 0 0
1687 1 2 0.0866 -13.402414920042746 -6.5187857220897145 -44.70344725486331 0 0 0
1688 1 2 0.0839 -11.667892816012134 -5.93776185261481 -43.01504209272057 0 0 0
1691 1 11 -0.2514 -13.296414971168971 -8.526618020612979 -46.441047678407365 0 0 0
1692 1 2 0.0896 -10.936208381909704 -9.759865558175804 -46.12481392634855 0 0 0
1693 1 6 0.1829 -14.07821741220878 -8.995822217431085 -46.001611902541974 0 0 0
1723 1 1 -0.0632 -12.160622693432044 -3.4381599921158554 -45.558724633289955 0 0 0
1724 1 1 -0.0801 -13.36917839623547 -3.595912406753113 -44.86026291185739 0 0 0
1725 1 1 -0.0632 -14.529560763055482 -3.9933107082096253 -45.54461992787579 0 0 0
1726 1 1 0.0078 -12.114224159432656 -3.6517110176017002 -46.946661697342066 0 0 0
1727 1 1 -0.043 -13.29585206048992 -3.970016097269122 -47.63949564288313 0 0 0
1728 1 1 0.0078 -14.485792923543073 -4.208228009104862 -46.933446301325986 0 0 0
1729 1 2 0.0866 -11.25388732178808 -3.179057557091448 -45.01759040035904 0 0 0
1730 1 2 0.0839 -13.399188409699647 -3.4446155639735903 -43.78480970868686 0 0 0
1731 1 2 0.0866 -15.449601553601529 -4.167222339953432 -44.99307913403359 0 0 0
1732 1 11 -0.2514 -15.581992678409282 -4.764200555760646 -47.634717959850924 0 0 0
1733 1 11 -0.2514 -10.863497821491228 -3.5760795904925478 -47.6095860422505 0 0 0
1977 1 1 -0.0632 -17.99789392298997 -0.18001669366624093 -45.37020738106901 0 0 0
1978 1 1 0.0078 -15.504499764813646 -0.6697684911501711 -46.565344319130986 0 0 0
1979 1 1 -0.043 -16.656243617408002 -1.3134410409899067 -47.052945301785726 0 0 0
1980 1 1 0.0078 -17.91100533205572 -1.0507233020151832 -46.46998048384122 0 0 0
1984 1 11 -0.2514 -19.10340224349353 -1.6115295404484544 -46.99305291457439 0 0 0
1985 1 4 -0.2514 -14.249985616828063 -0.8936890670339351 -47.17073693464728 0 0 0
1986 1 2 0.0896 -16.580797661930433 -1.9892223295345506 -47.898843973071344 0 0 0
1987 1 6 0.1829 -13.441546500013038 -0.5615564770317668 -46.6582100017692 0 0 0
1988 1 6 0.1829 -19.62619251440725 -2.173806302272062 -46.33344149292756 0 0 0
3429 1 6 0.1829 -17.404813547028215 -10.261071374272055 -47.59109475692531 0 0 0
5438 1 2 0.0871 -16.85419318889538 -8.555612432318997 -47.5553498068111 0 0 0
5442 1 10 0.2266 -16.234522094960408 -5.9467364596477195 -47.31943657258495 0 0 0
5443 1 4 -0.2763 -16.031387338963995 -6.5369270281719665 -46.27147916436322 0 0 0
5595 1 4 -0.2763 -20.616149856139987 -5.14254329229506 -47.975685631396146 0 0 0
5724 1 2 0.0871 -11.856245830638905 -6.199070276823438 -47.12456035913853 0 0 0
5726 1 10 0.2266 -13.33606814637649 -8.47601230477132 -47.824168820631684 0 0 0
6642 3 13 0.0 -12.064830813236583 -3.718224889083632 -39.34074573203341 0 0 0
461 1 6 0.1829 -5.759018877783879 -10.192120944805609 -45.147967904254195 0 0 0
1683 1 1 -0.0632 -10.326304190868198 -7.526147549315422 -43.61415700687253 0 0 0
1686 1 1 0.0078 -10.123509589354196 -8.609355865183897 -44.48442205016967 0 0 0
1689 1 2 0.0866 -9.585201106152283 -7.2955593404784 -42.854366349675644 0 0 0
1690 1 4 -0.2514 -8.97524099604283 -9.417469701506768 -44.336470390620434 0 0 0
1694 1 6 0.1829 -8.764685359371946 -10.050970288182379 -45.10038853669522 0 0 0
1735 1 6 0.1829 -10.267528938648685 -2.818742164206371 -47.29388135020694 0 0 0
2297 1 1 -0.0632 -3.7590012615748924 -5.378765574126427 -47.85142246430727 0 0 0
2300 1 1 0.0078 -4.260620291223421 -6.678876452279334 -47.66616772562067 0 0 0
2303 1 2 0.0866 -3.49217704210657 -4.767623056556769 -46.993298606295426 0 0 0
2307 1 11 -0.2514 -4.248028819188076 -7.270373037073654 -46.37676385425852 0 0 0
2309 1 6 0.1829 -4.964432076770239 -6.946660467562939 -45.740865591931566 0 0 0
2564 1 1 -0.0801 -0.5712963383530287 -0.7834685745495065 -41.74830080804127 0 0 0
2565 1 1 -0.0632 -1.0779374185589967 -0.7680917975995288 -43.05733620102468 0 0 0
2568 1 1 0.0078 -0.24264851328152887 -0.46492801211978935 -44.14844521732195 0 0 0
2570 1 2 0.0839 -1.2262839706030975 -1.0271637844674406 -40.91627939098298 0 0 0
2571 1 2 0.0866 -2.122937839848588 -1.0117325344597738 -43.224955876238994 0 0 0
2572 1 11 -0.2514 -0.8172351488455653 -0.5160550089703089 -45.449882260380186 0 0 0
2576 1 6 0.1829 -1.8277513316887852 -0.5375418189975576 -45.44851888951031 0 0 0
3339 1 2 0.0866 -9.308236621698475 -10.188951347825245 -47.83083403580664 0 0 0
3343 1 11 -0.2514 -8.446975742186986 -7.626937291264204 -47.6847568163095 0 0 0
3345 1 6 0.1829 -8.914493315710725 -6.732843551248679 -47.752553554826044 0 0 0
3374 1 6 0.1829 -0.1576237882745067 -6.134154223333285 -47.98466321329007 0 0 0
4073 1 1 -0.0521 -2.576109586242832 -10.27632320994021 -47.4002402254231 0 0 0
4075 1 1 -0.0531 -1.645013615602816 -8.04592350968392 -47.60645676333241 0 0 0
4076 1 1 0.0278 -2.529638567986821 -8.93828348677902 -46.975660464933355 0 0 0
4079 1 2 0.0871 -1.6053428922586082 -7.021454609966803 -47.2507302681755 0 0 0
4081 1 10 0.2266 -3.562977914972992 -8.4217394132323 -46.00950764382503 0 0 0
4085 1 4 -0.2763 -3.9147901508683054 -9.063326291438733 -45.03535959373487 0 0 0
4139 1 1 -0.0521 -6.70793400202751 -4.603686983961291 -43.894068885106975 0 0 0
4140 1 1 0.04 -6.365346023528678 -5.927386835401529 -43.55590214398031 0 0 0
4141 1 1 -0.0521 -6.745980101557306 -6.969800640989217 -44.420539860785354 0 0 0
4142 1 1 0.0278 -7.408943700072037 -4.329320818867653 -45.07876033887864 0 0 0
4143 1 1 -0.0531 -7.777149374809977 -5.381837671673703 -45.93485719703416 0 0 0
4144 1 1 0.0278 -7.417957519161519 -6.709145909856291 -45.630238299207896 0 0 0
4145 1 2 0.0872 -6.432275581097525 -3.7792404717000005 -43.243602362359255 0 0 0
4146 1 2 0.0872 -6.468875240156055 -7.991877805643061 -44.177715663502596 0 0 0
4147 1 2 0.0871 -8.28854265252693 -5.150750270782901 -46.860074483310086 0 0 0
4148 1 3 -0.2734 -7.705127512681247 -2.9072378059900164 -45.43107757500556 0 0 0
4149 1 10 0.2266 -7.596233305483333 -7.833300943319975 -46.61625207667183 0 0 0
4150 1 12 0.2765 -5.590936360769431 -6.248574293058158 -42.30569421449708 0 0 0
4151 1 4 -0.2623 -5.419074924858643 -7.390437052542475 -41.91566995825897 0 0 0
4152 1 4 -0.2763 -8.20951992248075 -2.547586594096297 -46.47870699284623 0 0 0
4153 1 4 -0.2763 -6.913643346069449 -8.839207449173157 -46.545936502086754 0 0 0
4154 1 7 -0.379 -4.820760652413663 -5.24871312376111 -41.823303829718654 0 0 0
4155 1 9 0.2886 -4.778966011889558 -4.565778034341952 -42.51798960232769 0 0 0
4361 1 1 0.04 -1.222002115270197 -7.026667082380851 -43.3306069004855 0 0 0
4362 1 1 -0.0521 -2.2942692781204763 -6.19149282119338 -43.69648995411791 0 0 0
4364 1 1 -0.0531 -0.7761221896340009 -4.320990495537506 -43.97448910174387 0 0 0
4365 1 1 0.0278 -2.0807902303162353 -4.843926364781873 -44.020522082499895 0 0 0
4367 1 2 0.0872 -3.300929719954194 -6.5884751197488605 -43.74276934589328 0 0 0
4368 1 2 0.0871 -0.6066726280993987 -3.2752264458855236 -44.20408170767786 0 0 0
4370 1 3 -0.2734 -3.256482005704552 -3.993581517003857 -44.387661150558166 0 0 0
4371 1 12 0.2765 -1.4648891743527372 -8.457967815613225 -42.94727272632155 0 0 0
4372 1 4 -0.2623 -0.6274862643301371 -9.334015245940916 -43.05568452075129 0 0 0
4374 1 4 -0.2763 -3.1682059092119332 -2.8526002148732927 -44.803464332910586 0 0 0
4375 1 7 -0.379 -2.6281690737489014 -8.68371978369248 -42.29625521403968 0 0 0
4376 1 9 0.2886 -3.0249584341655007 -7.805603913886655 -42.14976852575512 0 0 0
5492 1 1 0.0277 -1.1474027496576773 -0.881076647777855 -47.863499568541876 0 0 0
5493 1 1 -0.0531 -2.546126476917056 -0.9692033422976998 -47.69843404237946 0 0 0
5498 1 2 0.0871 -2.9916021891644027 -0.9310192981306264 -46.7119500690419 0 0 0
5502 1 10 0.2266 -0.21567279867958478 -0.6938437772393892 -46.689389464115365 0 0 0
5505 1 4 -0.2763 -5.473918098681224 -0.9267853248829242 -47.620115846275766 0 0 0
6682 43 13 0.0 -6.31385247389713 -7.731310814239596 -39.856756808032365 0 0 0
6761 112 9 0.0 -5.739587849175683 -1.1729431159297612 -45.66239855029801 0 0 0
6762 112 14 0.5 -5.415306803146322 -1.1006713104272967 -44.74794415287524 0 0 0
6794 128 14 0.5 -5.077668105053998 -10.37507681839674 -42.10123418540939 0 0 0
6871 167 9 0.0 -8.635636109874746 -1.0637813487306302 -47.92284885572941 0 0 0
6681 42 13 0.0 -21.038959311352635 -6.336515695253027 -24.155161465833242 0 0 0
6668 29 13 0.0 -14.40816577035622 -14.731520776807889 -12.921371685280803 0 0 0
6706 67 13 0.0 -17.503581500788997 -18.142452488375557 -22.74435472998682 0 0 0
6861 162 9 0.0 -19.114226758123564 -11.892524031898486 -22.445889631253188 0 0 0
6862 162 14 0.5 -18.197749039934322 -12.20849076945788 -22.36110929463333 0 0 0
6903 173 9 0.0 -19.75079830045193 -1.2599123750962353 -20.80141520102792 0 0 0
6904 173 14 0.5 -19.162429759301045 -0.5476875564382396 -21.107434282467725 0 0 0
6666 27 13 0.0 -5.35939464813348 -9.693393715683182 -23.321265764426055 0 0 0
6711 72 13 0.0 -0.511748430975085 -6.248829459501211 -23.402327463004188 0 0 0
6659 20 13 0.0 -9.899592495182931 -19.720403237370125 -9.084644563751956 0 0 0
6717 78 13 0.0 -6.663556215270605 -13.192228516459663 -9.435457121212186 0 0 0
6830 146 14 0.5 -3.0095234080582123 -21.038692794308723 -8.447662169379354 0 0 0
6643 4 13 0.0 -11.139925689505255 -6.640638872417441 -3.3195178847050713 0 0 0
6687 48 13 0.0 -7.060452922908565 -3.2588862221059074 -2.324419848358881 0 0 0
6847 155 9 0.0 -5.065757396789995 -0.19577474882901585 -5.869713940184115 0 0 0
6848 155 14 0.5 -4.9221639563343365 -0.8385792174459806 -6.586069116292483 0 0 0
127 1 1 -0.0632 -19.83346174416163 -13.74526991878369 6.499469173365883 0 0 0
128 1 1 -0.0801 -20.62823095895796 -14.625754915772426 5.746377615629609 0 0 0
130 1 1 0.0078 -20.270079716535022 -13.31038494102021 7.761656385908358 0 0 0
133 1 2 0.0866 -18.877652333579707 -13.408629434697863 6.107273738698331 0 0 0
134 1 2 0.0839 -20.28813012924437 -14.966041899630765 4.771866298961856 0 0 0
137 1 4 -0.2514 -19.456484632128603 -12.45709974477861 8.535493781449974 0 0 0
139 1 6 0.1829 -18.628153320439942 -12.094668084954147 8.075795308068196 0 0 0
1658 1 1 0.0078 -10.580165487070266 -17.06354443839767 10.806594356247107 0 0 0
1662 1 11 -0.2514 -11.758236890982234 -16.773367311628395 11.537897613334982 0 0 0
1666 1 6 0.1829 -12.579359985631045 -16.547729180845277 10.991870533946983 0 0 0
2344 1 1 0.0078 -11.15835599028134 -12.78670941154406 10.958125608242323 0 0 0
2347 1 2 0.0866 -10.964469914488667 -11.612481137042337 9.15125906173503 0 0 0
2348 1 4 -0.2514 -12.479444013865388 -13.197853325065214 10.67460113849518 0 0 0
2352 1 6 0.1829 -12.899927928086331 -12.778862231449349 9.850874038461239 0 0 0
4160 1 1 -0.0531 -20.580712203904945 -18.25969065579274 11.45872353346981 0 0 0
4164 1 2 0.0871 -20.68554151494729 -18.66965131429903 10.458993098236851 0 0 0
4165 1 3 -0.2734 -18.864515920988286 -20.017136020762962 11.937274961837907 0 0 0
4844 1 2 0.0871 -14.234137008517287 -15.775669148729099 11.96868787009993 0 0 0
4849 1 4 -0.2763 -16.84687216676464 -15.55756791049717 11.396642421764273 0 0 0
5075 1 1 0.04 -17.253838575518092 -11.775037319264055 11.27638778192975 0 0 0
5076 1 1 -0.0521 -17.88930039735467 -10.691798856512538 10.638474172180022 0 0 0
5078 1 1 -0.0531 -19.956392897019576 -11.182821066694476 11.82067942768142 0 0 0
5085 1 12 0.2765 -15.836629063815082 -12.1465799320739 10.934856314060529 0 0 0
5086 1 4 -0.2623 -15.28064475786402 -11.808822173380321 9.905564991335233 0 0 0
5089 1 7 -0.379 -15.156742059852276 -12.805424002177716 11.896897082723763 0 0 0
5090 1 9 0.2886 -14.273390817144078 -12.963932258883375 11.514926761736623 0 0 0
6652 13 13 0.0 -16.863858989167117 -15.012197714016537 5.086184169281643 0 0 0
6741 102 9 0.0 -19.474203367284698 -15.166166972200546 9.753953720701924 0 0 0
6742 102 14 0.5 -19.58305815661726 -14.818296117065419 10.656074868370917 0 0 0
6865 164 9 0.0 -16.176612301831153 -17.978455568202932 9.915847938039333 0 0 0
6866 164 14 0.5 -16.819798217311497 -18.386089418172542 10.521480845239868 0 0 0
883 1 1 -0.0632 -4.21002706243883 -16.085063609663756 11.092422615286338 0 0 0
886 1 1 0.0078 -3.2771267072764023 -15.145812505723628 10.623610565565754 0 0 0
887 1 1 -0.043 -3.298159885001098 -13.83242770886744 11.119264798475816 0 0 0
889 1 2 0.0866 -4.200899798172135 -17.09953555973258 10.704271298070895 0 0 0
893 1 4 -0.2514 -2.331460909014743 -15.512843183521582 9.641884309137307 0 0 0
894 1 2 0.0896 -2.5960975784492804 -13.099037032788436 10.737045705292989 0 0 0
895 1 6 0.1829 -1.937900687179501 -14.742939264573115 9.110172919654756 0 0 0
896 1 6 0.1829 -4.688939484327533 -11.481894495772087 11.680925886866037 0 0 0
1653 1 1 -0.0632 -8.188507075498931 -17.643231449834094 9.446750590320175 0 0 0
1654 1 1 -0.0801 -8.758177629057624 -16.362810514282863 9.354562354873371 0 0 0
1655 1 1 -0.0632 -9.955227086591954 -16.075451042472423 10.029647032889095 0 0 0
1656 1 1 0.0078 -8.817875088601209 -18.642434049413346 10.208210230183358 0 0 0
1657 1 1 -0.043 -10.026462414444735 -18.35478197133481 10.866236496714563 0 0 0
1659 1 2 0.0866 -7.261432377167706 -17.859483484392094 8.922771353758044 0 0 0
1660 1 2 0.0839 -8.272880150221724 -15.593266720408202 8.76047722520593 0 0 0
1661 1 2 0.0866 -10.38930330875197 -15.086096286552689 9.951965093216154 0 0 0
1663 1 11 -0.2514 -8.240501601641062 -19.93588752508852 10.271720004914279 0 0 0
1664 1 2 0.0896 -10.527013678614432 -19.128955785520766 11.442144356032678 0 0 0
1665 1 6 0.1829 -7.9895994479545305 -20.330932796123882 9.374032521323455 0 0 0
2339 1 1 -0.0632 -8.543437903435597 -11.935815471328908 11.54032633716188 0 0 0
2340 1 1 -0.0801 -9.168062751972062 -11.527116140765882 10.350535086883763 0 0 0
2341 1 1 -0.0632 -10.47780145033097 -11.944983628993798 10.063690016096693 0 0 0
2345 1 2 0.0866 -7.53617574349383 -11.594301270639368 11.758411436027151 0 0 0
2346 1 2 0.0839 -8.6429004080324 -10.875885978707295 9.657460881541159 0 0 0
5101 1 10 0.2266 -8.07954402017381 -20.788831884548152 11.35472831963497 0 0 0
5575 1 12 0.2266 -1.1244860948490805 -11.807088758497892 8.497037534888884 0 0 0
5579 1 4 -0.2763 -1.4709107200236335 -12.964851018110098 8.330647077067074 0 0 0
6701 62 13 0.0 -9.73828502696699 -20.723794005488166 1.4502382102718883 0 0 0
6766 1 7 0.0 -2.036435205897682 -10.824266761510591 8.686434787067816 0 0 0
1611 1 1 -0.0632 -11.862237138883758 -5.544101993366268 11.611123564133361 0 0 0
1617 1 2 0.0866 -11.470751650117219 -5.4734531556098425 10.600094634838507 0 0 0
1618 1 2 0.0839 -11.564017198844814 -7.681710157716998 11.72321495068801 0 0 0
1621 1 11 -0.2514 -11.977206223395658 -3.131761211021955 11.697665850347077 0 0 0
1623 1 6 0.1829 -11.20733184661901 -3.16367467832313 11.044239234328064 0 0 0
3139 1 1 -0.0632 -15.10019282057469 -7.8622074165420255 11.843286193178374 0 0 0
3144 1 2 0.0839 -14.505025812650434 -9.882802303095406 11.413292075513786 0 0 0
3145 1 2 0.0866 -14.954338593815265 -7.531297916743958 10.818838719374584 0 0 0
3150 1 6 0.1829 -15.057454593001719 -5.348103603455939 11.622909248335507 0 0 0
3476 1 1 -0.0521 -17.23839912587437 -1.513379348481426 9.988038081477495 0 0 0
3477 1 1 0.04 -15.990523156283958 -2.164969697629549 9.979785595799582 0 0 0
3478 1 1 -0.0521 -15.732168158118274 -3.152157004234992 10.9528095168596 0 0 0
3479 1 1 0.0278 -18.19276455409593 -1.809239602613476 10.974654754742762 0 0 0
3480 1 1 -0.0531 -17.901818233544258 -2.7541246818811524 11.966620019907202 0 0 0
3481 1 1 0.0278 -16.693724052712675 -3.4737819240132666 11.934907266645673 0 0 0
3482 1 2 0.0872 -17.475383818462404 -0.7839312930147044 9.219916004584547 0 0 0
3483 1 2 0.0872 -14.785575874877088 -3.6819460130344845 10.931832027859391 0 0 0
3485 1 3 -0.2734 -19.553976940776547 -1.2005688998005777 10.937995335135632 0 0 0
3487 1 12 0.2765 -14.976519419671899 -1.8167971601049897 8.920680060775789 0 0 0
3488 1 4 -0.2623 -15.097764194812859 -0.8725340309648281 8.161030168848882 0 0 0
3489 1 4 -0.2763 -20.08602539042827 -0.7969712925491211 9.921447188589907 0 0 0
3491 1 7 -0.379 -13.854323505223096 -2.565153262629387 8.892353498567557 0 0 0
3492 1 9 0.2886 -13.380497982981955 -2.268894172188172 8.095670566321074 0 0 0
3989 1 1 0.0278 -11.703503776623366 -0.7276817458463705 11.364083794958573 0 0 0
3995 1 10 0.2266 -12.488014795252095 -1.869691429561907 11.963692916420218 0 0 0
5079 1 1 0.0278 -19.24197778590517 -10.385363274070222 10.901174429287176 0 0 0
5081 1 2 0.0872 -17.33261240579363 -10.098753398024954 9.917319988327117 0 0 0
5084 1 12 0.2266 -19.90360910773933 -9.24893299940975 10.164902073814888 0 0 0
5088 1 4 -0.2763 -19.291099018569444 -8.469673417437717 9.454864155627702 0 0 0
6678 39 13 0.0 -13.192606732181284 -7.598617185446802 9.666929061889011 0 0 0
6869 166 9 0.0 -19.934288244385773 -4.082457413110521 9.439880757046081 0 0 0
6870 166 14 0.5 -20.716021056152744 -3.7589394477218505 9.920810343096663 0 0 0
932 1 2 0.0839 -0.22383731552052244 -3.1533558287019576 11.80098709747875 0 0 0
2620 1 1 -0.0801 -1.0977864008590503 -6.325564491122938 11.981348093487247 0 0 0
2621 1 1 -0.0632 -0.9908155562344053 -7.682017618069345 11.633709252517162 0 0 0
2626 1 2 0.0839 -1.006219594897686 -5.562226514200274 11.213638257603787 0 0 0
2627 1 2 0.0866 -0.8153490805698611 -7.957844536335539 10.598535838388077 0 0 0
2632 1 6 0.1829 -1.7927902767381214 -10.37342030918734 11.638518354349092 0 0 0
2943 1 1 -0.0632 -7.1197349283600895 -4.197233723767848 11.807344267242092 0 0 0
2946 1 1 0.0078 -6.746239683908538 -5.546202141829648 11.948025523682903 0 0 0
2949 1 2 0.0866 -6.548168819795312 -3.5384358473689437 11.157671473337032 0 0 0
2950 1 11 -0.2514 -5.651992628823681 -6.0188336813281635 11.168640378157704 0 0 0
2954 1 6 0.1829 -5.552852820426415 -5.541528567284143 10.280996942562899 0 0 0
3986 1 1 -0.0521 -10.416994956006288 -0.9370826347563872 10.821160028896513 0 0 0
3992 1 2 0.0872 -9.98275119839805 -1.9296808094071902 10.805766737535203 0 0 0
3997 1 12 0.2765 -8.270148971392896 -0.15659223145533435 9.777125811839396 0 0 0
3998 1 4 -0.2623 -7.864425209436795 -1.287273885273985 9.57280055939831 0 0 0
5378 1 2 0.0871 -4.435414102495144 -9.697809605941362 11.587071490293578 0 0 0
5382 1 10 0.2266 -4.755720149003617 -7.066222529163227 11.348593241171631 0 0 0
5383 1 4 -0.2763 -4.02472145702356 -7.376467076581798 10.424766348439183 0 0 0
5574 1 2 0.0871 -0.04283390464268455 -9.26869306367879 8.829626247522356 0 0 0
6674 35 13 0.0 -5.5068764732523094 -4.022514511571557 7.099075901683262 0 0 0
6765 1 9 0.0 -1.5347721220537145 -10.014290464405933 8.88452340361984 0 0 0
57 1 1 -0.0632 -15.667483210419938 -17.569844012762374 19.11193468268387 0 0 0
58 1 1 -0.0801 -16.11561437472196 -17.138654132830816 17.853429524339468 0 0 0
59 1 1 -0.0632 -15.355633006380497 -16.22534215887994 17.101363316638928 0 0 0
60 1 1 0.0078 -14.459130719172585 -17.080936187577798 19.627346196036644 0 0 0
61 1 1 -0.043 -13.694262521667687 -16.185855336638863 18.863213365514486 0 0 0
62 1 1 0.0078 -14.13580475988645 -15.745388023027683 17.60675948306407 0 0 0
63 1 2 0.0866 -16.28000722248689 -18.24231451475718 19.701739361062625 0 0 0
64 1 2 0.0839 -17.05822565404848 -17.51109200687543 17.46822059156118 0 0 0
65 1 2 0.0866 -15.712923512253667 -15.902527144866944 16.132582471684277 0 0 0
66 1 11 -0.2514 -13.305007033743216 -14.816381090999691 16.93237268263786 0 0 0
67 1 11 -0.2514 -14.031647446738406 -17.42770944564568 20.93267160790014 0 0 0
68 1 2 0.0896 -12.7631027305306 -15.801221976184147 19.26859233973093 0 0 0
69 1 6 0.1829 -13.935881197658192 -18.413052490192147 21.133513286008444 0 0 0
70 1 6 0.1829 -12.374763539923375 -14.759925063937379 17.33183162165609 0 0 0
673 1 1 -0.0632 -10.65041051323645 -14.084606392643677 22.34867445811745 0 0 0
676 1 1 0.0078 -11.338676786652343 -12.872736904902682 22.505255948996517 0 0 0
677 1 1 -0.043 -11.09880408323533 -12.068414961209344 23.634737418927614 0 0 0
679 1 2 0.0866 -10.839900800737556 -14.713985596606165 21.48272502587413 0 0 0
683 1 11 -0.2514 -12.318748365460998 -12.535020262218103 21.543452618166363 0 0 0
684 1 2 0.0896 -11.6591003571854 -11.14899582325045 23.749989975593145 0 0 0
685 1 6 0.1829 -12.824567130835367 -13.325460988765716 21.16388316653274 0 0 0
710 1 11 -0.2514 -16.573868514405238 -21.01706762842395 19.089693842638418 0 0 0
714 1 6 0.1829 -16.877523042614847 -20.313417568086752 18.4250975165005 0 0 0
730 1 1 -0.0801 -10.981461543552998 -19.133699581870317 20.12015728452462 0 0 0
736 1 2 0.0839 -11.883278252435055 -19.632346305453964 19.775646878309963 0 0 0
737 1 2 0.0866 -11.095399453760402 -17.60189676513406 18.61651685135599 0 0 0
1134 1 6 0.1829 -14.559210147721377 -21.059226762922957 12.859681138553556 0 0 0
1205 1 1 -0.0632 -19.169175379076886 -11.59494780163251 21.037505558633406 0 0 0
1206 1 1 -0.0801 -17.874444166798295 -11.106796593767085 21.25398569390973 0 0 0
1208 1 1 0.0078 -19.97481766244129 -11.01101215429989 20.049100132923616 0 0 0
1211 1 2 0.0866 -19.557622038290848 -12.391669370762962 21.66439428243785 0 0 0
1212 1 2 0.0839 -17.282354267036503 -11.510700450779218 22.06195679057482 0 0 0
1961 1 1 -0.0632 -19.31129698680499 -17.292753909066526 21.06781080751022 0 0 0
1962 1 1 -0.0801 -18.253777554181017 -16.863220037959135 21.88191631978698 0 0 0
1963 1 1 -0.0632 -17.445261791815387 -15.792552403932582 21.47569747570096 0 0 0
1964 1 1 0.0078 -19.546995416716648 -16.673387988574856 19.82842782086693 0 0 0
1965 1 1 -0.043 -18.7355117899491 -15.593606629271012 19.429763989907514 0 0 0
1966 1 1 0.0078 -17.6706430361077 -15.15152857062781 20.245245007553635 0 0 0
1967 1 2 0.0866 -19.928543866485324 -18.120276186996243 21.395312494495304 0 0 0
1968 1 2 0.0839 -18.062149284967276 -17.359840435919086 22.82840065006052 0 0 0
1969 1 2 0.0866 -16.62564344887889 -15.472228628610715 22.11274173453016 0 0 0
1970 1 11 -0.2514 -16.75942898123445 -14.116052201240205 19.889975845108317 0 0 0
1971 1 11 -0.2514 -20.56871399713813 -17.114271163554104 18.94427813017236 0 0 0
1972 1 2 0.0896 -18.927365419323767 -15.133502675979107 18.46806205326043 0 0 0
1973 1 6 0.1829 -20.787481640461717 -16.456488242580072 18.206799039537547 0 0 0
1974 1 6 0.1829 -16.079136009914798 -13.920187180587417 20.613872431641674 0 0 0
2285 1 1 -0.0632 -20.65358945197356 -14.84077216073246 23.707586845571747 0 0 0
2291 1 2 0.0866 -19.923461337547344 -15.632104571736173 23.576752399901483 0 0 0
2350 1 2 0.0896 -11.063129742226863 -13.848906239607674 12.833650093218962 0 0 0
3143 1 2 0.0866 -14.806430896880125 -10.667224648048402 13.754085252476647 0 0 0
3459 1 1 -0.0521 -10.604122744245965 -10.699908327354859 15.874428374503134 0 0 0
3460 1 1 0.04 -11.380794149243252 -10.967523734814698 14.728237931466692 0 0 0
3461 1 1 -0.0521 -12.371476746745245 -11.971876065124674 14.7834362453953 0 0 0
3462 1 1 0.0278 -10.79914967160412 -11.432788159889792 17.05735159852233 0 0 0
3463 1 1 -0.0531 -11.756736984618314 -12.45816948114175 17.07444459551668 0 0 0
3464 1 1 0.0278 -12.555217086146213 -12.737500327735061 15.949599409655 0 0 0
3466 1 2 0.0872 -12.982928397755494 -12.17767047474228 13.909029053952098 0 0 0
3467 1 2 0.0871 -11.910628227200862 -13.00609041183343 17.999460706354185 0 0 0
3469 1 10 0.2266 -13.61034933109406 -13.809921829160174 16.02930488480555 0 0 0
3473 1 4 -0.2763 -14.668327408591784 -13.727568198407312 15.428379368635909 0 0 0
3912 1 12 0.2765 -15.339990437166904 -12.84095319371867 23.834567635435338 0 0 0
3913 1 4 -0.2623 -15.495540577015959 -13.01114540655101 22.643633446688675 0 0 0
4156 1 1 -0.0521 -19.561904524565847 -18.3142972900203 13.657701592023821 0 0 0
4157 1 1 0.04 -20.209942940182742 -17.11422974428556 14.010755796542158 0 0 0
4158 1 1 -0.0521 -21.085895516679678 -16.52075140912161 13.079501903697217 0 0 0
4159 1 1 0.0278 -19.70383491377474 -18.86032300522258 12.372392004952403 0 0 0
4162 1 2 0.0872 -18.917335620301724 -18.81466308046865 14.372080539839528 0 0 0
4167 1 12 0.2765 -19.941432636166613 -16.501135883542027 15.360630934334672 0 0 0
4168 1 4 -0.2623 -19.12431787115839 -16.955372298308973 16.13813654617431 0 0 0
4169 1 4 -0.2763 -17.792703042086167 -20.298938168668712 12.44570337375338 0 0 0
4171 1 7 -0.379 -20.551052653948236 -15.328112415663414 15.640023205752067 0 0 0
4172 1 9 0.2886 -21.062374370135956 -15.078556067529844 14.847537775251292 0 0 0
4313 1 1 -0.0531 -12.604691199182074 -18.373718445102945 23.301760247659296 0 0 0
4314 1 1 0.0278 -13.008798628206222 -17.02952643327367 23.154779720853337 0 0 0
4317 1 2 0.0871 -12.835171096796326 -19.101329779070227 22.530033571019725 0 0 0
4319 1 10 0.2266 -13.678586940342187 -16.51192918725242 21.90935024338394 0 0 0
4322 1 4 -0.2763 -11.90135916519086 -21.117618149122023 23.926146499044435 0 0 0
4323 1 4 -0.2763 -13.829787033794174 -15.315034636654401 21.733000634270383 0 0 0
4836 1 1 -0.0521 -15.988475969542261 -17.739329176462522 14.130611913927144 0 0 0
4837 1 1 0.04 -14.93693614105804 -18.449297417581878 14.734441811072708 0 0 0
4838 1 1 -0.0521 -13.615616067420447 -18.15262953846683 14.352410794022438 0 0 0
4839 1 1 0.0278 -15.742362030378256 -16.779111825676708 13.139498085521872 0 0 0
4840 1 1 -0.0531 -14.419231968797206 -16.511620738776372 12.74571729193414 0 0 0
4841 1 1 0.0278 -13.347151530816582 -17.202944030851054 13.348057362226678 0 0 0
4842 1 2 0.0872 -17.006329228500658 -17.94014678054647 14.428677269151157 0 0 0