LAMMPS data file via write_data, version 29 Oct 2020, timestep = 207

6840 atoms
14 atom types
7239 bonds
18 bond types
11479 angles
23 angle types
20158 dihedrals
42 dihedral types

11.848023 53.151977 xlo xhi
11.848023 53.151977 ylo yhi
-0.195824 68.165387 zlo zhi

Masses

1 12.01
2 1.008
3 12.01
4 16
5 14.01
6 1.008
7 16
8 14.01
9 1.008
10 12.01
11 14.01
12 12.01
13 1.008
14 16

Pair Coeffs # lj/cut/coul/long/omp

1 0.086 3.39967
2 0.015 2.59964
3 0.086 3.39967
4 0.21 2.95992
5 0.17 3.25
6 0.0157 1.06908
7 0.2104 3.06647
8 0.17 3.25
9 0 0
10 0.086 3.39967
11 0.17 3.25
12 0.086 3.39967
13 0.0157 1.06908
14 0.2104 3.06647

Atoms # full

2514 1 2 0.0 20.06342499365697 20.69460567188985 7.8514007174942755 0 0 0
6738 49 13 0.5 15.740253356784347 18.761977759046154 0.6841730461537265 0 0 0
6805 84 9 0.0 20.05373169197885 21.827161518482193 0.9136213192495616 0 0 0
6105 1 4 0.0 29.186483396540613 21.43207452902681 12.278962603750202 0 0 0
6813 88 9 0.0 13.963919263207336 12.116790912638665 0.9225465394223797 0 0 0
6716 27 13 0.5 23.114804463276617 14.68822390677769 0.6840066827465567 0 0 0
6755 59 9 0.0 27.94450440033905 19.65074533171989 0.9181646345025828 0 0 0
6756 59 14 0.5 27.567839876177953 20.516850933179974 0.683985233503273 0 0 0
1513 1 1 0.0 20.87760191262849 18.13023379895935 13.032211444270825 0 0 0
1516 1 1 0.0 20.540578951770133 17.275569630782194 14.099059700613005 0 0 0
1517 1 1 0.0 21.527538977935205 16.918708294412856 15.035421173930722 0 0 0
1519 1 2 0.0 20.144797784402176 18.383633197374223 12.271744296469528 0 0 0
1523 1 11 0.0 19.26105209339867 16.6666762111618 14.184712252662274 0 0 0
1524 1 2 0.0 21.281769621727616 16.22982263136138 15.839935174047493 0 0 0
1525 1 6 0.0 19.26815418910142 15.699110872871833 14.48303691528556 0 0 0
2292 1 11 0.0 17.21681222829698 12.336943434388589 15.543571379597626 0 0 0
2296 1 6 0.0 17.917060233445117 13.067409163863275 15.575699875630997 0 0 0
2507 1 1 0.0 21.461163761839536 21.217540302082668 9.41539668861804 0 0 0
2508 1 1 0.0 20.174850871416652 21.028285344995282 8.878888671300258 0 0 0
2509 1 1 0.0 19.031316793062388 21.281750335269447 9.659636641056245 0 0 0
2510 1 1 0.0 21.597414830728166 21.64496385811707 10.747682171520776 0 0 0
2511 1 1 0.0 20.453330523671045 21.88267032780986 11.52339295070167 0 0 0
2512 1 1 0.0 19.166166226106764 21.735997036520427 10.983676908422165 0 0 0
2515 1 2 0.0 18.045743623213617 21.14051506918816 9.22766539775788 0 0 0
2516 1 11 0.0 18.026000141417974 22.052775465033502 11.772584420141218 0 0 0
2520 1 6 0.0 17.245952132936477 21.41015809106236 11.708709439987036 0 0 0
2592 1 1 0.0 14.313135110694558 21.82793041829458 9.967196474992507 0 0 0
2597 1 2 0.0 12.36742815807528 21.46580968759015 10.819575376640321 0 0 0
2598 1 2 0.0 14.436514128008422 20.80567235322357 9.621903936541052 0 0 0
4275 1 2 0.0 15.739137875906225 21.402679387195857 12.740899505738577 0 0 0
4280 1 12 0.0 13.331480912084102 21.403086437166966 13.969238530875511 0 0 0
4281 1 4 0.0 13.482361940284957 20.33523920050822 13.400423727193939 0 0 0
4284 1 7 0.0 12.11241888079542 21.79288746920268 14.407827658932732 0 0 0
4473 1 1 0.0 12.00376572306271 14.605796125369224 16.76156766669387 0 0 0
4479 1 2 0.0 12.11625540223972 15.149338169979991 15.827450436283115 0 0 0
4485 1 4 0.0 14.511599407617386 16.03845627644999 16.46274622834188 0 0 0
4541 1 1 0.0 14.693556691773127 14.45480132994588 13.759797728659006 0 0 0
4542 1 1 0.0 14.54993480583662 15.750134704275712 13.225422999501903 0 0 0
4543 1 1 0.0 15.636764254964259 16.645443175372893 13.30031116029583 0 0 0
4544 1 1 0.0 15.896486063995015 14.04573697004848 14.36805786205758 0 0 0
4545 1 1 0.0 16.97332227961183 14.957196661119886 14.42024981985049 0 0 0
4546 1 1 0.0 16.858710157471375 16.256433098833266 13.881937784552976 0 0 0
4547 1 2 0.0 13.857319682718469 13.763243815049545 13.711422508025942 0 0 0
4548 1 2 0.0 15.544206523116378 17.645572618776733 12.887596567187215 0 0 0
4549 1 2 0.0 17.9058927705651 14.65715762129997 14.885017021691082 0 0 0
4550 1 10 0.0 15.999552581042298 12.660338841549898 14.962048814522129 0 0 0
4551 1 10 0.0 18.023528875413252 17.217347317595337 13.879202652234609 0 0 0
4552 1 12 0.0 13.244735454489922 16.148131749364733 12.586654672966057 0 0 0
4553 1 4 0.0 12.265158342061158 15.422305861547624 12.561267247519819 0 0 0
4554 1 4 0.0 15.052020182036813 11.890800531567866 14.969444813801 0 0 0
4555 1 4 0.0 17.887548196317752 18.390091641025922 13.568307433950398 0 0 0
4556 1 7 0.0 13.214019554192813 17.377474428936374 12.0202331682007 0 0 0
4557 1 9 0.0 14.095227454614918 17.767194489350576 12.155645967527226 0 0 0
4694 1 1 0.0 12.904687427303418 18.95693390865214 16.27717996712174 0 0 0
4700 1 2 0.0 13.364874885275677 18.2620747683219 15.581652860393103 0 0 0
4709 1 7 0.0 15.745763394146174 18.812788079563646 16.204960990419508 0 0 0
4710 1 9 0.0 15.017354557902586 18.585219404033303 15.601291112427242 0 0 0
903 1 2 0.0 22.333758901897554 12.074800438189174 16.14233043967179 0 0 0
995 1 1 0.0 31.85547551696646 18.889803963075977 16.657724113717855 0 0 0
996 1 1 0.0 31.887999091931807 17.51334881623965 16.389378557334634 0 0 0
1001 1 2 0.0 32.17428539786307 19.596207183442758 15.897860972890347 0 0 0
1002 1 2 0.0 32.24563521607353 17.156654540864142 15.428326706440483 0 0 0
1514 1 1 0.0 22.18531919650664 18.62317387907816 12.912789812450178 0 0 0
1515 1 1 0.0 23.161072201874322 18.28218557225566 13.861047723297611 0 0 0
1518 1 1 0.0 22.836874022258307 17.420506742405102 14.924683518438052 0 0 0
1520 1 2 0.0 22.445779209205874 19.253896420772023 12.072284289249758 0 0 0
1521 1 2 0.0 24.170107597065083 18.664275458987603 13.74789433615979 0 0 0
1522 1 11 0.0 23.81655496206754 16.986190335858343 15.853898527884118 0 0 0
1526 1 6 0.0 23.702496852830162 16.03629172191483 16.186217823412406 0 0 0
1725 1 1 0.0 31.69058352447264 21.62012835911895 13.915750894018466 0 0 0
1731 1 2 0.0 31.31278943156853 20.731300854024937 13.422535991113254 0 0 0
2513 1 2 0.0 22.334349113348292 21.04148819059631 8.794750706703217 0 0 0
2517 1 11 0.0 22.83339668557209 21.899641314821622 11.383933909553654 0 0 0
2796 1 11 0.0 32.217821797683456 13.053070736302598 14.188605744182793 0 0 0
2800 1 6 0.0 32.31536226144784 12.056561580040242 14.341670271983135 0 0 0
3333 1 1 0.0 25.476388373009577 15.821959836795251 11.276528897133096 0 0 0
3334 1 1 0.0 25.738795341198962 17.183353152729456 11.040282191235184 0 0 0
3335 1 1 0.0 26.35283869646632 17.970201088360167 12.030834912362517 0 0 0
3336 1 1 0.0 25.829757675622577 15.246436377300467 12.511745033203118 0 0 0
3337 1 1 0.0 26.398328390542098 16.048728991372403 13.509773052060238 0 0 0
3338 1 1 0.0 26.681458545066405 17.402486969094053 13.273231174428238 0 0 0
3339 1 2 0.0 25.016021820645943 15.222762857745193 10.496825438659316 0 0 0
3340 1 2 0.0 25.4757759316923 17.626302091380715 10.084043888693671 0 0 0
3341 1 2 0.0 26.566797813618976 19.01289199742887 11.831486645135678 0 0 0
3342 1 11 0.0 27.25763818690222 18.162236569725284 14.321608013248603 0 0 0
3343 1 11 0.0 25.700344104253407 13.867350892502243 12.807270136292697 0 0 0
3344 1 2 0.0 26.651589760923816 15.60579500060058 14.470047670037145 0 0 0
3345 1 6 0.0 25.72995156828848 13.667758059668591 13.799749950547806 0 0 0
3346 1 6 0.0 26.594675064525845 18.727462480248143 14.83835223525637 0 0 0
3733 1 2 0.0 27.029823383302883 12.593343129815175 14.516986744201668 0 0 0
3734 1 10 0.0 25.993353775984172 12.789041173004984 11.987232274400329 0 0 0
3738 1 4 0.0 26.04653083054407 12.865803611894616 10.771096481487671 0 0 0
3946 1 1 0.0 30.138345385626927 17.68996437893095 13.216542557849003 0 0 0
3947 1 1 0.0 31.15464166770477 17.030334490754125 12.496965783186008 0 0 0
3948 1 1 0.0 31.419494230113894 15.676922784204478 12.785938023722018 0 0 0
3949 1 1 0.0 29.421423858646534 17.017314049132658 14.220656971096709 0 0 0
3950 1 1 0.0 29.70725763917214 15.670854083249157 14.506625628354309 0 0 0
3951 1 1 0.0 30.7067173503883 14.989968991732267 13.787794253777987 0 0 0
3952 1 2 0.0 29.909271610181946 18.73307218282792 13.01960788205233 0 0 0
3953 1 2 0.0 32.159291025057364 15.142384308006779 12.200024371396383 0 0 0
3954 1 2 0.0 29.14374546163124 15.15273362549775 15.277989494745194 0 0 0
3955 1 10 0.0 28.393242987953563 17.764838499284767 15.009511496855856 0 0 0
3956 1 10 0.0 30.921625040103926 13.51767735390182 14.008417137293334 0 0 0
3957 1 12 0.0 31.954913302878897 17.73517898472936 11.431662575564005 0 0 0
3959 1 4 0.0 28.534686164177764 17.97039648626254 16.201047940892227 0 0 0
3960 1 4 0.0 29.978167694358604 12.747653193187258 14.037897282062909 0 0 0
3961 1 7 0.0 31.623609917969628 19.026812405951365 11.197122321141782 0 0 0
3962 1 9 0.0 30.895829961065132 19.242099934775673 11.805678347315228 0 0 0
5129 1 10 0.0 24.785975197878958 17.75252781101688 16.483521557119968 0 0 0
5133 1 4 0.0 24.90378164854897 18.950667265914525 16.283352556281333 0 0 0
6091 1 1 0.0 24.367649663144 21.709013019386223 13.707327508822745 0 0 0
6092 1 1 0.0 24.95488804396906 21.539716456108913 12.439271422283072 0 0 0
6093 1 1 0.0 26.353240428977745 21.595316462357328 12.322119925939653 0 0 0
6094 1 1 0.0 25.140164376317916 21.995089727088146 14.841418587400206 0 0 0
6095 1 1 0.0 26.537873390027393 22.091442839902612 14.693912532558787 0 0 0
6096 1 1 0.0 27.160923931413087 21.86538029947871 13.445655652851467 0 0 0
6097 1 2 0.0 23.291584691579743 21.619744538943795 13.81874185930086 0 0 0
6098 1 2 0.0 26.809632389026376 21.439963223963534 11.348992892700053 0 0 0
6104 1 4 0.0 23.215257858274068 22.123148283982314 16.2359796750441 0 0 0
6101 1 10 0.0 28.66182637442744 21.8778945824497 13.28542930943499 0 0 0
6102 1 10 0.0 24.077950130853008 21.3120014957922 11.240183578036577 0 0 0
6103 1 4 0.0 24.41412994661535 20.623977750478343 10.291415479641673 0 0 0
6822 92 14 0.5 28.58649577538026 20.769113194253926 16.729208127725922 0 0 0
1009 1 1 0.0 19.35137263489007 13.437391769413498 23.436468331401645 0 0 0
1010 1 1 0.0 19.384029249369792 13.399740345522156 22.03378740976864 0 0 0
1011 1 1 0.0 18.631158822081282 12.439429697718031 21.33984856525366 0 0 0
1012 1 1 0.0 18.567441607753533 12.51715172480779 24.153609033484535 0 0 0
1015 1 2 0.0 19.941683620652743 14.178269755475117 23.965529828892723 0 0 0
1016 1 2 0.0 19.995954613040844 14.110561346845937 21.485829363773206 0 0 0
1017 1 2 0.0 18.677784493597432 12.40592490497362 20.255614602195443 0 0 0
1628 1 1 0.0 12.648443543295983 12.255730765097002 22.787881828279513 0 0 0
1629 1 1 0.0 13.551836493320138 12.940244194814387 23.620995902557986 0 0 0
1630 1 1 0.0 13.645233061663571 12.62451751378094 24.990594272227966 0 0 0
1635 1 11 0.0 12.59811399646601 12.608413096174065 21.414317397524037 0 0 0
1636 1 2 0.0 14.195959285556118 13.700095553655135 23.189680485489358 0 0 0
1637 1 6 0.0 13.443311368547667 13.037148698205817 21.058077749741166 0 0 0
2041 1 11 0.0 15.15576587147357 21.158082209108393 24.856936547923592 0 0 0
2043 1 6 0.0 14.356055237609336 21.75595972402291 25.026752191519797 0 0 0
2291 1 2 0.0 18.56225726391019 12.1723452158501 17.81819950832292 0 0 0
2829 1 1 0.0 18.943613277657025 18.28761742536596 18.59894471446658 0 0 0
2830 1 1 0.0 18.492365601980158 16.96090684789901 18.704692084863517 0 0 0
2831 1 1 0.0 17.587838107167787 16.597775428542757 19.716286111420473 0 0 0
2832 1 1 0.0 18.505239197471127 19.257872550588218 19.524295736249325 0 0 0
2833 1 1 0.0 17.58314988444337 18.88465040766335 20.515196380779273 0 0 0
2834 1 1 0.0 17.106775190967948 17.566213650636108 20.612798536432937 0 0 0
2835 1 2 0.0 19.62211214029221 18.54340913252914 17.792784990198246 0 0 0
2836 1 2 0.0 18.84206307654961 16.213230862932743 17.998554251802865 0 0 0
2837 1 2 0.0 17.254845026197323 15.56703909477133 19.797626253852034 0 0 0
2838 1 11 0.0 16.204495302083988 17.18515287728003 21.6421974869691 0 0 0
2839 1 11 0.0 18.87189221514083 20.632496329255282 19.47396696882269 0 0 0
2840 1 2 0.0 17.231014132229067 19.635639749539596 21.207142267494596 0 0 0
2841 1 6 0.0 18.234499091705324 21.24403646804539 19.969872962554682 0 0 0
2842 1 6 0.0 16.389843678414564 16.281330655849207 22.059814132022257 0 0 0
3146 1 11 0.0 19.558955175096326 22.017611291183055 25.35062810257068 0 0 0
3150 1 6 0.0 19.226664057207067 21.604679777904384 24.487478298246348 0 0 0
3474 1 1 0.0 18.96443290676188 16.496975182021995 25.293097780811205 0 0 0
3475 1 1 0.0 19.11514526018081 16.844196354178884 23.94070924331129 0 0 0
3477 1 1 0.0 21.471306137828023 17.273543202334636 24.319731102902924 0 0 0
3478 1 1 0.0 20.364467239128615 17.260950062619088 23.45166470104948 0 0 0
3481 1 2 0.0 18.257707049419977 16.80697091565974 23.28004358483452 0 0 0
3482 1 11 0.0 20.488514106607777 17.694399596559787 22.103596944173944 0 0 0
3486 1 6 0.0 20.068586303381267 17.07658595052804 21.419433512654273 0 0 0
4394 1 2 0.0 16.270377040333877 21.80920949766024 21.031220627732054 0 0 0
4397 1 10 0.0 15.87513896217328 21.389880094261354 23.69175939447566 0 0 0
4401 1 4 0.0 16.80791039717514 20.684668832421888 23.349545299147962 0 0 0
4404 1 9 0.0 16.362768718764933 22.122031635507152 19.403281695378723 0 0 0
4474 1 1 0.0 13.109020303068935 14.484307435205915 17.625652501536628 0 0 0
4475 1 1 0.0 12.961312368031964 13.786649878115906 18.83859740797736 0 0 0
4480 1 2 0.0 13.808824415274904 13.72306778822949 19.513309387702076 0 0 0
4484 1 12 0.0 14.418485081672868 15.129014268657416 17.266229746642182 0 0 0
4488 1 7 0.0 15.514893443504665 14.610362225477703 17.8667936559078 0 0 0
4489 1 9 0.0 15.202136290992204 13.889502051110176 18.440542824762957 0 0 0
4695 1 1 0.0 13.702361575094516 19.68219770405356 17.1849776807181 0 0 0
4696 1 1 0.0 13.097435643480367 20.648811258099474 18.016349718960598 0 0 0
4701 1 2 0.0 13.71624594450941 21.228043658663434 18.69538698276891 0 0 0
4705 1 12 0.0 15.190997334697617 19.476034169016344 17.24643780206939 0 0 0
4706 1 4 0.0 15.88388264649291 19.940238745573367 18.13165963937736 0 0 0
5507 1 1 0.0 21.84185381287871 19.73975702771533 22.570003690314703 0 0 0
5508 1 1 0.0 21.087173364944164 20.299824173359436 23.620713671711965 0 0 0
5511 1 1 0.0 21.699835499815997 21.130882375570923 24.583882229514654 0 0 0
5513 1 2 0.0 20.025635223705574 20.077438535664076 23.685290186220936 0 0 0
5517 1 10 0.0 21.238834458345377 18.755713891409908 21.603817528529447 0 0 0
5518 1 4 0.0 21.50898870284225 18.80927388337551 20.417309943855457 0 0 0
5740 1 10 0.0 19.9192448806367 21.266633604810053 18.820058182399126 0 0 0
5744 1 4 0.0 20.755436149299896 20.687096688746628 18.14731705082493 0 0 0
6301 1 1 0.0 13.13372723738751 17.708649185715284 23.71373122853531 0 0 0
6302 1 1 0.0 12.434904738784686 17.093896887417433 24.78026521785876 0 0 0
6303 1 1 0.0 13.03136306778243 15.996608293830594 25.43426610193787 0 0 0
6304 1 1 0.0 14.414885498617089 17.261622813223948 23.32276201209989 0 0 0
6305 1 1 0.0 15.016562846318504 16.216493872560797 24.051344044821004 0 0 0
6306 1 1 0.0 14.329062693067405 15.581420479957753 25.095076938743688 0 0 0
6307 1 2 0.0 12.681557475366702 18.535138204408277 23.17417426232857 0 0 0
6309 1 2 0.0 16.02170740233361 15.880241322355312 23.815645313481088 0 0 0
6310 1 10 0.0 15.12433185709566 17.897969807634826 22.15090505326229 0 0 0
6314 1 4 0.0 14.730828361907106 18.938261526980252 21.648037018109587 0 0 0
869 1 1 0.0 28.730806599413857 18.931792184441854 24.17489314663788 0 0 0
870 1 1 0.0 29.839389625179848 18.637957074979987 23.37284244305876 0 0 0
871 1 1 0.0 30.595920384692462 17.48813921046057 23.62775001423928 0 0 0
872 1 1 0.0 28.37290915250143 18.075609211798056 25.232271518426465 0 0 0
874 1 1 0.0 30.25361674933617 16.619168944481007 24.67848697928426 0 0 0
875 1 2 0.0 28.162242355632515 19.83349670968587 23.979009704631917 0 0 0
876 1 2 0.0 30.122837944614936 19.30858227861475 22.5667752312597 0 0 0
877 1 2 0.0 31.472537718771072 17.303703811828914 23.028166689283633 0 0 0
878 1 11 0.0 31.132547787708603 15.570634391831074 25.060348361719342 0 0 0
898 1 1 0.0 22.559860646261782 12.838002490129975 18.13773291421192 0 0 0
899 1 1 0.0 22.610027487018392 12.53478941134793 19.506458316840458 0 0 0
904 1 2 0.0 22.687568149106657 13.864383209891228 17.80563394063841 0 0 0
905 1 2 0.0 22.768822868631556 13.330166155477409 20.22603917905107 0 0 0
997 1 1 0.0 31.465651546585878 16.59651816585707 17.365417782533676 0 0 0
998 1 1 0.0 31.40041582867522 19.34657948350459 17.905492228519574 0 0 0
999 1 1 0.0 30.99776912910551 18.42727107500767 18.887974184505197 0 0 0
1000 1 1 0.0 31.03618793199587 17.04839721618934 18.626740816469553 0 0 0
1003 1 2 0.0 31.508951423237242 15.535691603071083 17.15118956679784 0 0 0
1004 1 11 0.0 30.744400142928846 16.14686704918699 19.681560001523174 0 0 0
1005 1 11 0.0 31.30850169886142 20.72943271936626 18.17619169495293 0 0 0
1006 1 2 0.0 30.66996303540786 18.784671036408785 19.861065563406466 0 0 0
1007 1 6 0.0 30.369716882412327 21.095074466150393 18.280225671651873 0 0 0
1008 1 6 0.0 31.02016899643747 16.46316010646753 20.60328025293068 0 0 0
2493 1 1 0.0 24.080098301159072 16.824133374305845 21.456863979866274 0 0 0
2494 1 1 0.0 23.13138363853783 15.800478480333101 21.600684704911796 0 0 0
2495 1 1 0.0 23.251369583213066 14.874010240338427 22.646591804038774 0 0 0
2496 1 1 0.0 25.173845886504868 16.912186323341455 22.34079149537308 0 0 0
2497 1 1 0.0 25.272114633030178 16.002035051709473 23.405659740225115 0 0 0
2498 1 1 0.0 24.318339504078743 14.977298308711234 23.553431737823708 0 0 0
2499 1 2 0.0 23.985431884463413 17.52219058177944 20.630792509849773 0 0 0
2500 1 2 0.0 22.30720103642737 15.722159471938847 20.89779909650872 0 0 0
2501 1 2 0.0 22.522712056415266 14.074587913483867 22.745855616216485 0 0 0
2502 1 11 0.0 24.48267581490836 13.993044545702894 24.55429109634905 0 0 0
2503 1 11 0.0 26.216365129863423 17.85674335110958 22.132039415775225 0 0 0
2504 1 2 0.0 26.122162579126115 16.054125799957795 24.081290469317214 0 0 0
2505 1 6 0.0 26.454550812149566 18.426607908646503 22.934959345001165 0 0 0
2506 1 6 0.0 24.52900651423605 13.035299676121175 24.22851473870517 0 0 0
3015 1 1 0.0 25.437741216208213 22.036420533884368 19.684533686066885 0 0 0
3020 1 11 0.0 25.75717112588411 21.712709510806498 22.08487607159354 0 0 0
3022 1 2 0.0 26.308610751792408 21.413366810836838 19.496850471489026 0 0 0
3024 1 6 0.0 26.75581359110987 21.86968572796742 22.02297794459864 0 0 0
3484 1 2 0.0 22.442043639954388 17.60259478573566 23.96111272650146 0 0 0
3989 1 10 0.0 32.351748082946926 21.564141211851855 18.526604202671138 0 0 0
5119 1 1 0.0 26.612916363719126 15.815514120864417 19.879481201338763 0 0 0
5120 1 1 0.0 26.065129602888476 15.021023843108338 18.853783799311437 0 0 0
5121 1 1 0.0 25.54721125770479 15.650382997261856 17.70538053917324 0 0 0
5122 1 1 0.0 26.6102933431192 17.219547655352834 19.777100649977655 0 0 0
5123 1 1 0.0 26.123641742747697 17.829722140506334 18.609751238791244 0 0 0
5124 1 1 0.0 25.535566658621693 17.0577400041507 17.590323428809295 0 0 0
5125 1 2 0.0 26.98620955705326 15.351683388588672 20.788235828350114 0 0 0
5126 1 2 0.0 25.09703246684209 15.037856942556912 16.929585014120512 0 0 0
5127 1 2 0.0 26.083487463368165 18.914387232710197 18.559039148518018 0 0 0
5128 1 10 0.0 26.93822472286922 18.079092582166158 20.963679618925596 0 0 0
5130 1 12 0.0 25.96612460391649 13.525905600837788 18.994903981255696 0 0 0
5131 1 4 0.0 25.76088735227485 12.778084927382695 18.05445284596179 0 0 0
5132 1 4 0.0 27.70069373830345 19.024838602906414 20.865606850773194 0 0 0
5134 1 7 0.0 25.927060449510684 13.06856467337158 20.268587271477934 0 0 0
5135 1 9 0.0 25.998698774894294 13.848596144559087 20.845744755741954 0 0 0
5228 1 2 0.0 22.252947058479478 11.855037598482358 23.728185123196077 0 0 0
5506 1 1 0.0 23.199587522916044 20.081291439486158 22.44260269669028 0 0 0
5509 1 1 0.0 23.828835037373207 20.883188345626067 23.41021477599819 0 0 0
5510 1 1 0.0 23.08493563863234 21.366308445913262 24.498347301444536 0 0 0
5512 1 2 0.0 23.78181540353732 19.682115907410957 21.61784060226172 0 0 0
5514 1 2 0.0 23.57533984769546 22.000192169379005 25.232110704404334 0 0 0
5515 1 10 0.0 25.283605962834432 21.231425655642482 23.298397609014227 0 0 0
5519 1 4 0.0 26.017715379058778 21.154948316177354 24.266313353214024 0 0 0
5551 1 1 0.0 29.63119436800581 12.806505388195463 23.350524365622434 0 0 0
5552 1 1 0.0 28.935795992933514 12.374029163273104 22.21164278372186 0 0 0
5553 1 1 0.0 29.121030598997603 13.055387405244044 20.9940318422941 0 0 0
5554 1 1 0.0 30.478977107598755 13.922996302733482 23.301775005778197 0 0 0
5555 1 1 0.0 30.65427202622605 14.59327119989475 22.078511547185293 0 0 0
5556 1 1 0.0 29.96574009627665 14.179654936988086 20.91722850298283 0 0 0
5557 1 2 0.0 29.508681809835185 12.268423721942266 24.281518704241222 0 0 0
5558 1 2 0.0 28.57087135239001 12.739129596154454 20.114250228348222 0 0 0
5559 1 2 0.0 31.359372491558343 15.411759243554616 22.029065137508347 0 0 0
5560 1 10 0.0 31.26377801361968 14.294477462139344 24.526993621764134 0 0 0
5561 1 10 0.0 30.104260665453943 14.918462236935337 19.60971557031144 0 0 0
5564 1 4 0.0 31.90128179859687 13.44565882872598 25.126167156560083 0 0 0
5565 1 4 0.0 29.616322950538173 14.492074145529376 18.575038869052726 0 0 0
6821 92 9 0.0 28.362010526766248 21.254206332637207 17.54371777448208 0 0 0
6584 1 4 0.0 28.03244243093001 20.419213446612442 26.81584932395428 0 0 0
101 1 1 0.0 18.71903530169311 19.790748734219154 33.89345110654942 0 0 0
104 1 1 0.0 17.507832801205847 20.49864627759437 33.95440665131105 0 0 0
107 1 2 0.0 19.616975074145767 20.279796870066896 33.53182704316682 0 0 0
108 1 11 0.0 17.481992640371132 21.840045868818247 33.49941889319696 0 0 0
112 1 6 0.0 18.040786354790104 22.02510946519421 32.675001560472275 0 0 0
1019 1 11 0.0 18.5124312444911 12.604439451351405 25.56921881033901 0 0 0
1021 1 6 0.0 18.384831742338452 13.536486500257945 25.94381492397891 0 0 0
1634 1 11 0.0 14.608593015853971 13.229462540009582 25.842132770478536 0 0 0
1638 1 6 0.0 15.067022378164003 12.584235984004247 26.47413704434697 0 0 0
1642 1 1 0.0 15.27023230483467 11.940032244896111 32.295111602957775 0 0 0
1643 1 1 0.0 15.943715411407888 12.505508512259095 33.39699404391776 0 0 0
1649 1 11 0.0 15.373154678780441 12.50041126890094 30.997247144213905 0 0 0
1650 1 2 0.0 16.541395677028206 13.396395619928834 33.24202233540088 0 0 0
1651 1 6 0.0 15.784648458551315 11.88448178193898 30.306222403337806 0 0 0
1947 1 1 0.0 21.674585710070698 14.495005405795437 31.138590621070172 0 0 0
1948 1 1 0.0 21.52987755313068 15.039950227465807 29.850837928314323 0 0 0
1949 1 1 0.0 21.69726286706165 14.23162047074358 28.714030557913578 0 0 0
1950 1 1 0.0 22.02905791958175 13.145202982137466 31.296942294287295 0 0 0
1951 1 1 0.0 22.15236194829881 12.334375399826184 30.154507309075044 0 0 0
1952 1 1 0.0 21.986896789088746 12.861268471505653 28.8642469190829 0 0 0
1953 1 2 0.0 21.526749072105538 15.124357347322844 32.00818396517354 0 0 0
1954 1 2 0.0 21.282023135482724 16.08988687552237 29.73105519971883 0 0 0
1955 1 2 0.0 21.585842264776264 14.679551368281423 27.734775022451615 0 0 0
1956 1 11 0.0 22.145422365545066 11.943771015695368 27.791624804542106 0 0 0
1959 1 6 0.0 21.565020649984547 12.785693973986207 33.294965509216766 0 0 0
2015 1 6 0.0 11.930408177994419 12.769176245252696 33.66170422833553 0 0 0
2031 1 1 0.0 16.650625686103584 19.692358863835906 26.169832777235975 0 0 0
2032 1 1 0.0 16.818058032845748 18.68352503218353 27.128688538696103 0 0 0
2033 1 1 0.0 15.696942017490345 18.11182142552245 27.746040264961195 0 0 0
2034 1 1 0.0 15.358048430407106 20.127893092804463 25.815282877181783 0 0 0
2035 1 1 0.0 14.23812073262739 19.561298022606433 26.452790850990603 0 0 0
2036 1 1 0.0 14.403848297298163 18.553381198200704 27.424102543197467 0 0 0
2037 1 2 0.0 17.530303408009676 20.132923452385217 25.713652565019366 0 0 0
2038 1 2 0.0 17.815856002798093 18.348505946294427 27.395860773491002 0 0 0
2039 1 2 0.0 15.830620438827452 17.327657258739496 28.48320605675158 0 0 0
2040 1 11 0.0 13.310044096859496 17.923062385027297 28.073213243650848 0 0 0
2042 1 2 0.0 13.242884229886885 19.89667334240615 26.175613674821275 0 0 0
2044 1 6 0.0 13.495972988686345 16.97807302743311 28.386690876126448 0 0 0
2115 1 1 0.0 19.74734124122344 18.667644813789487 30.67949466204429 0 0 0
2116 1 1 0.0 18.794832728929524 19.615696349512195 30.276677220145324 0 0 0
2117 1 1 0.0 19.069188431269126 20.98513950528839 30.41071814475947 0 0 0
2118 1 1 0.0 20.991247348333008 19.0797348579838 31.185053965760336 0 0 0
2119 1 1 0.0 21.273716117457962 20.454516778888852 31.291313889724147 0 0 0
2120 1 1 0.0 20.29306566042169 21.41209645573388 30.95531208434689 0 0 0
2121 1 2 0.0 19.5078575042622 17.61120703306733 30.631549614215782 0 0 0
2122 1 2 0.0 17.832224631156496 19.28948368301476 29.894499442888126 0 0 0
2123 1 2 0.0 18.30627855752631 21.709434870392798 30.14393543503791 0 0 0
2125 1 11 0.0 21.84057040350358 18.10639625907708 31.76971813548091 0 0 0
2127 1 6 0.0 21.362096846368644 17.428130825664237 32.34980826683807 0 0 0
2487 1 2 0.0 12.1248412831472 22.099155350972868 30.65188275316296 0 0 0
3473 1 1 0.0 20.056091158041784 16.590377385267566 26.170395733627647 0 0 0
3476 1 1 0.0 21.306119467128617 17.01874310045886 25.687264938071085 0 0 0
3479 1 2 0.0 19.912575164512365 16.397511144875367 27.2293033288413 0 0 0
3480 1 2 0.0 17.993874574724224 16.191955177818098 25.667662410919256 0 0 0
3759 1 1 0.0 18.634252810065778 12.608882404567826 30.68601769491431 0 0 0
3760 1 1 0.0 18.398478685969557 13.612129540968073 29.729901492020225 0 0 0
3761 1 1 0.0 18.44013223512877 13.277242963828025 28.361301142384953 0 0 0
3764 1 1 0.0 18.718268908298025 11.959429324087015 27.94228048226963 0 0 0
3765 1 2 0.0 18.612516619247305 12.876012998869838 31.737823492111865 0 0 0
3766 1 2 0.0 18.264132427610257 14.049823984226927 27.6221809978057 0 0 0
3770 1 12 0.0 18.110549264607876 15.01710892860376 30.19266225683373 0 0 0
3771 1 4 0.0 18.006116367392888 15.328325697603228 31.367337363124857 0 0 0
3774 1 7 0.0 17.96048121045631 15.93779568885853 29.21395302987226 0 0 0
3775 1 9 0.0 18.078250937094047 15.467348052909976 28.370412203006392 0 0 0
4505 1 7 0.0 13.57421751721403 22.004666269619484 33.48984354120846 0 0 0
4779 1 1 0.0 14.430377606089419 16.08607351650692 31.270362348182147 0 0 0
4780 1 1 0.0 13.652726620878722 17.02315015658093 31.975648016951556 0 0 0
4781 1 1 0.0 12.689038841738688 16.556400953990597 32.89262335039227 0 0 0
4782 1 1 0.0 14.246968540814654 14.7029775285343 31.45284048808664 0 0 0
4783 1 1 0.0 13.284341024668405 14.2618708360531 32.378574927411854 0 0 0
4784 1 1 0.0 12.494076925731472 15.17648604385818 33.10263880294328 0 0 0
4785 1 2 0.0 15.158790446678053 16.43304444471899 30.54415630319065 0 0 0
4786 1 2 0.0 12.077816352423065 17.267013946703443 33.44088363221412 0 0 0
4787 1 2 0.0 13.08912122567421 13.201513402805352 32.46811704448285 0 0 0
4788 1 10 0.0 14.962684179496671 13.745456668740733 30.535484061316865 0 0 0
4790 1 12 0.0 13.850843660557278 18.494967118949496 31.724196091780314 0 0 0
4791 1 4 0.0 14.76959978142692 18.943658126257972 31.05973486004665 0 0 0
4792 1 4 0.0 15.17089370634872 14.053736111251702 29.37546590242456 0 0 0
4794 1 7 0.0 12.88669878381754 19.306433232279705 32.21663949892538 0 0 0
4795 1 9 0.0 12.240627780733595 18.73089713197599 32.66170487130305 0 0 0
4855 1 2 0.0 22.0428951111342 16.75695604571208 33.85579594169777 0 0 0
5232 1 10 0.0 21.962568824425976 12.072349512911671 26.421863071578283 0 0 0
5233 1 4 0.0 21.627112421042266 13.11209973134057 25.881089141183473 0 0 0
5516 1 10 0.0 20.9030662140939 21.847287308423564 25.640865344488677 0 0 0
6219 1 2 0.0 12.110624800209564 15.723348496116467 28.61611414285966 0 0 0
6220 1 10 0.0 12.104203252687869 18.473765130868806 28.481671758710387 0 0 0
6308 1 2 0.0 12.521828365589725 15.509664387862042 26.260603338212377 0 0 0
6311 1 10 0.0 15.037545265107315 14.54599813255463 25.90872209240307 0 0 0
6315 1 4 0.0 15.972571049420717 14.859888547699045 26.62195662961374 0 0 0
6583 1 4 0.0 21.099337063851337 18.785985334629537 27.882805834563914 0 0 0
309 1 1 0.0 28.30201168518469 18.551695503002325 32.662039718960955 0 0 0
310 1 1 0.0 27.629337604093656 19.142146810916348 31.57913195578308 0 0 0
311 1 1 0.0 28.313410401979798 19.408857380418453 30.38116297001702 0 0 0
312 1 1 0.0 29.663425830025187 18.222643717666582 32.548680627572175 0 0 0
313 1 1 0.0 30.345621547289035 18.514230539060264 31.353207857644545 0 0 0
314 1 1 0.0 29.681930911671746 19.110155940365388 30.2647997627732 0 0 0
315 1 2 0.0 27.760695462873418 18.33076068387524 33.57794493817385 0 0 0
316 1 2 0.0 26.577434800406515 19.39590666774383 31.669073942991048 0 0 0
317 1 2 0.0 27.78797262877969 19.884791768875193 29.56033044228494 0 0 0
318 1 11 0.0 30.414449620929634 19.52557911448474 29.11783676451838 0 0 0
319 1 11 0.0 30.32151212604654 17.5228168149809 33.59563061454817 0 0 0
320 1 2 0.0 31.40218134197992 18.281844645224954 31.2737749528772 0 0 0
322 1 6 0.0 30.250715378975794 20.48169607945862 28.82567740944535 0 0 0
873 1 1 0.0 29.127264092417263 16.911141762964675 25.47267745079603 0 0 0
879 1 11 0.0 27.273461817002275 18.410022216533935 26.0639088300057 0 0 0
880 1 2 0.0 28.873797885543965 16.266919008807008 26.310628403237757 0 0 0
881 1 6 0.0 26.503252848085236 17.752574896322205 26.075849581263842 0 0 0
882 1 6 0.0 31.615972167143404 15.732031805830546 25.93567283210829 0 0 0
1025 1 1 0.0 30.01341419919838 12.112935155168266 33.92540992443611 0 0 0
1027 1 1 0.0 29.27081290152795 12.418556475183482 31.637788833246237 0 0 0
1028 1 1 0.0 30.2667109615163 12.553344489062711 32.61639804957197 0 0 0
1032 1 11 0.0 31.544267709587338 13.044497744096025 32.25382331206808 0 0 0
1034 1 2 0.0 29.467970956304775 12.73599236452062 30.619588220405277 0 0 0
1036 1 6 0.0 32.32098197662729 12.40810461076722 32.387452356772734 0 0 0
1317 1 1 0.0 28.945356458095134 12.054267957439848 26.81962444571626 0 0 0