LAMMPS data file via write_data, version 29 Oct 2020, timestep = 207

6693 atoms
14 atom types
7190 bonds
18 bond types
11479 angles
23 angle types
20158 dihedrals
42 dihedral types

11.848023 53.151977 xlo xhi
11.848023 53.151977 ylo yhi
-0.195824 68.165387 zlo zhi

Masses

1 12.01
2 1.008
3 12.01
4 16
5 14.01
6 1.008
7 16
8 14.01
9 1.008
10 12.01
11 14.01
12 12.01
13 1.008
14 16

Pair Coeffs # lj/cut/coul/long/omp

1 0.086 3.39967
2 0.015 2.59964
3 0.086 3.39967
4 0.21 2.95992
5 0.17 3.25
6 0.0157 1.06908
7 0.2104 3.06647
8 0.17 3.25
9 0 0
10 0.086 3.39967
11 0.17 3.25
12 0.086 3.39967
13 0.0157 1.06908
14 0.2104 3.06647

Atoms # full

 1 1 2 0.0 20.06342499365697 20.69460567188985 7.8514007174942755
 2 1 4 0.0 29.186483396540613 21.43207452902681 12.278962603750202
 3 1 1 0.0 20.87760191262849 18.13023379895935 13.032211444270825
 4 1 1 0.0 20.540578951770133 17.275569630782194 14.099059700613005
 5 1 1 0.0 21.527538977935205 16.918708294412856 15.035421173930722
 6 1 2 0.0 20.144797784402176 18.383633197374223 12.271744296469528
 7 1 11 0.0 19.26105209339867 16.6666762111618 14.184712252662274
 8 1 2 0.0 21.281769621727616 16.22982263136138 15.839935174047493
 9 1 6 0.0 19.26815418910142 15.699110872871833 14.48303691528556
 10 1 11 0.0 17.21681222829698 12.336943434388589 15.543571379597626
 11 1 6 0.0 17.917060233445117 13.067409163863275 15.575699875630997
 12 1 1 0.0 21.461163761839536 21.217540302082668 9.41539668861804
 13 1 1 0.0 20.174850871416652 21.028285344995282 8.878888671300258
 14 1 1 0.0 19.031316793062388 21.281750335269447 9.659636641056245
 15 1 1 0.0 21.597414830728166 21.64496385811707 10.747682171520776
 16 1 1 0.0 20.453330523671045 21.88267032780986 11.52339295070167
 17 1 1 0.0 19.166166226106764 21.735997036520427 10.983676908422165
 18 1 2 0.0 18.045743623213617 21.14051506918816 9.22766539775788
 19 1 11 0.0 18.026000141417974 22.052775465033502 11.772584420141218
 20 1 6 0.0 17.245952132936477 21.41015809106236 11.708709439987036
 21 1 1 0.0 14.313135110694558 21.82793041829458 9.967196474992507
 22 1 2 0.0 12.36742815807528 21.46580968759015 10.819575376640321
 23 1 2 0.0 14.436514128008422 20.80567235322357 9.621903936541052
 24 1 2 0.0 15.739137875906225 21.402679387195857 12.740899505738577
 25 1 12 0.0 13.331480912084102 21.403086437166966 13.969238530875511
 26 1 4 0.0 13.482361940284957 20.33523920050822 13.400423727193939
 27 1 7 0.0 12.11241888079542 21.79288746920268 14.407827658932732
 28 1 1 0.0 12.00376572306271 14.605796125369224 16.76156766669387
 29 1 2 0.0 12.11625540223972 15.149338169979991 15.827450436283115
 30 1 4 0.0 14.511599407617386 16.03845627644999 16.46274622834188
 31 1 1 0.0 14.693556691773127 14.45480132994588 13.759797728659006
 32 1 1 0.0 14.54993480583662 15.750134704275712 13.225422999501903
 33 1 1 0.0 15.636764254964259 16.645443175372893 13.30031116029583
 34 1 1 0.0 15.896486063995015 14.04573697004848 14.36805786205758
 35 1 1 0.0 16.97332227961183 14.957196661119886 14.42024981985049
 36 1 1 0.0 16.858710157471375 16.256433098833266 13.881937784552976
 37 1 2 0.0 13.857319682718469 13.763243815049545 13.711422508025942
 38 1 2 0.0 15.544206523116378 17.645572618776733 12.887596567187215
 39 1 2 0.0 17.9058927705651 14.65715762129997 14.885017021691082
 40 1 10 0.0 15.999552581042298 12.660338841549898 14.962048814522129
 41 1 10 0.0 18.023528875413252 17.217347317595337 13.879202652234609
 42 1 12 0.0 13.244735454489922 16.148131749364733 12.586654672966057
 43 1 4 0.0 12.265158342061158 15.422305861547624 12.561267247519819
 44 1 4 0.0 15.052020182036813 11.890800531567866 14.969444813801
 45 1 4 0.0 17.887548196317752 18.390091641025922 13.568307433950398
 46 1 7 0.0 13.214019554192813 17.377474428936374 12.0202331682007
 47 1 9 0.0 14.095227454614918 17.767194489350576 12.155645967527226
 48 1 1 0.0 12.904687427303418 18.95693390865214 16.27717996712174
 49 1 2 0.0 13.364874885275677 18.2620747683219 15.581652860393103
 50 1 7 0.0 15.745763394146174 18.812788079563646 16.204960990419508
 51 1 9 0.0 15.017354557902586 18.585219404033303 15.601291112427242
 52 1 2 0.0 22.333758901897554 12.074800438189174 16.14233043967179
 53 1 1 0.0 31.85547551696646 18.889803963075977 16.657724113717855
 54 1 1 0.0 31.887999091931807 17.51334881623965 16.389378557334634
 55 1 2 0.0 32.17428539786307 19.596207183442758 15.897860972890347
 56 1 2 0.0 32.24563521607353 17.156654540864142 15.428326706440483
 57 1 1 0.0 22.18531919650664 18.62317387907816 12.912789812450178
 58 1 1 0.0 23.161072201874322 18.28218557225566 13.861047723297611
 59 1 1 0.0 22.836874022258307 17.420506742405102 14.924683518438052
 60 1 2 0.0 22.445779209205874 19.253896420772023 12.072284289249758
 61 1 2 0.0 24.170107597065083 18.664275458987603 13.74789433615979
 62 1 11 0.0 23.81655496206754 16.986190335858343 15.853898527884118
 63 1 6 0.0 23.702496852830162 16.03629172191483 16.186217823412406
 64 1 1 0.0 31.69058352447264 21.62012835911895 13.915750894018466
 65 1 2 0.0 31.31278943156853 20.731300854024937 13.422535991113254
 66 1 2 0.0 22.334349113348292 21.04148819059631 8.794750706703217
 67 1 11 0.0 22.83339668557209 21.899641314821622 11.383933909553654
 68 1 11 0.0 32.217821797683456 13.053070736302598 14.188605744182793
 69 1 6 0.0 32.31536226144784 12.056561580040242 14.341670271983135
 70 1 1 0.0 25.476388373009577 15.821959836795251 11.276528897133096
 71 1 1 0.0 25.738795341198962 17.183353152729456 11.040282191235184
 72 1 1 0.0 26.35283869646632 17.970201088360167 12.030834912362517
 73 1 1 0.0 25.829757675622577 15.246436377300467 12.511745033203118
 74 1 1 0.0 26.398328390542098 16.048728991372403 13.509773052060238
 75 1 1 0.0 26.681458545066405 17.402486969094053 13.273231174428238
 76 1 2 0.0 25.016021820645943 15.222762857745193 10.496825438659316
 77 1 2 0.0 25.4757759316923 17.626302091380715 10.084043888693671
 78 1 2 0.0 26.566797813618976 19.01289199742887 11.831486645135678
 79 1 11 0.0 27.25763818690222 18.162236569725284 14.321608013248603
 80 1 11 0.0 25.700344104253407 13.867350892502243 12.807270136292697
 81 1 2 0.0 26.651589760923816 15.60579500060058 14.470047670037145
 82 1 6 0.0 25.72995156828848 13.667758059668591 13.799749950547806
 83 1 6 0.0 26.594675064525845 18.727462480248143 14.83835223525637
 84 1 2 0.0 27.029823383302883 12.593343129815175 14.516986744201668
 85 1 10 0.0 25.993353775984172 12.789041173004984 11.987232274400329
 86 1 4 0.0 26.04653083054407 12.865803611894616 10.771096481487671
 87 1 1 0.0 30.138345385626927 17.68996437893095 13.216542557849003
 88 1 1 0.0 31.15464166770477 17.030334490754125 12.496965783186008
 89 1 1 0.0 31.419494230113894 15.676922784204478 12.785938023722018
 90 1 1 0.0 29.421423858646534 17.017314049132658 14.220656971096709
 91 1 1 0.0 29.70725763917214 15.670854083249157 14.506625628354309
 92 1 1 0.0 30.7067173503883 14.989968991732267 13.787794253777987
 93 1 2 0.0 29.909271610181946 18.73307218282792 13.01960788205233
 94 1 2 0.0 32.159291025057364 15.142384308006779 12.200024371396383
 95 1 2 0.0 29.14374546163124 15.15273362549775 15.277989494745194
 96 1 10 0.0 28.393242987953563 17.764838499284767 15.009511496855856
 97 1 10 0.0 30.921625040103926 13.51767735390182 14.008417137293334
 98 1 12 0.0 31.954913302878897 17.73517898472936 11.431662575564005
 99 1 4 0.0 28.534686164177764 17.97039648626254 16.201047940892227
 100 1 4 0.0 29.978167694358604 12.747653193187258 14.037897282062909
 101 1 7 0.0 31.623609917969628 19.026812405951365 11.197122321141782
 102 1 9 0.0 30.895829961065132 19.242099934775673 11.805678347315228
 103 1 10 0.0 24.785975197878958 17.75252781101688 16.483521557119968
 104 1 4 0.0 24.90378164854897 18.950667265914525 16.283352556281333
 105 1 1 0.0 24.367649663144 21.709013019386223 13.707327508822745
 106 1 1 0.0 24.95488804396906 21.539716456108913 12.439271422283072
 107 1 1 0.0 26.353240428977745 21.595316462357328 12.322119925939653
 108 1 1 0.0 25.140164376317916 21.995089727088146 14.841418587400206
 109 1 1 0.0 26.537873390027393 22.091442839902612 14.693912532558787
 110 1 1 0.0 27.160923931413087 21.86538029947871 13.445655652851467
 111 1 2 0.0 23.291584691579743 21.619744538943795 13.81874185930086
 112 1 2 0.0 26.809632389026376 21.439963223963534 11.348992892700053
 113 1 4 0.0 23.215257858274068 22.123148283982314 16.2359796750441
 114 1 10 0.0 28.66182637442744 21.8778945824497 13.28542930943499
 115 1 10 0.0 24.077950130853008 21.3120014957922 11.240183578036577
 116 1 4 0.0 24.41412994661535 20.623977750478343 10.291415479641673
 117 1 1 0.0 19.35137263489007 13.437391769413498 23.436468331401645
 118 1 1 0.0 19.384029249369792 13.399740345522156 22.03378740976864
 119 1 1 0.0 18.631158822081282 12.439429697718031 21.33984856525366
 120 1 1 0.0 18.567441607753533 12.51715172480779 24.153609033484535
 121 1 2 0.0 19.941683620652743 14.178269755475117 23.965529828892723
 122 1 2 0.0 19.995954613040844 14.110561346845937 21.485829363773206
 123 1 2 0.0 18.677784493597432 12.40592490497362 20.255614602195443
 124 1 1 0.0 12.648443543295983 12.255730765097002 22.787881828279513
 125 1 1 0.0 13.551836493320138 12.940244194814387 23.620995902557986
 126 1 1 0.0 13.645233061663571 12.62451751378094 24.990594272227966
 127 1 11 0.0 12.59811399646601 12.608413096174065 21.414317397524037
 128 1 2 0.0 14.195959285556118 13.700095553655135 23.189680485489358
 129 1 6 0.0 13.443311368547667 13.037148698205817 21.058077749741166
 130 1 11 0.0 15.15576587147357 21.158082209108393 24.856936547923592
 131 1 6 0.0 14.356055237609336 21.75595972402291 25.026752191519797
 132 1 2 0.0 18.56225726391019 12.1723452158501 17.81819950832292
 133 1 1 0.0 18.943613277657025 18.28761742536596 18.59894471446658
 134 1 1 0.0 18.492365601980158 16.96090684789901 18.704692084863517
 135 1 1 0.0 17.587838107167787 16.597775428542757 19.716286111420473
 136 1 1 0.0 18.505239197471127 19.257872550588218 19.524295736249325
 137 1 1 0.0 17.58314988444337 18.88465040766335 20.515196380779273
 138 1 1 0.0 17.106775190967948 17.566213650636108 20.612798536432937
 139 1 2 0.0 19.62211214029221 18.54340913252914 17.792784990198246
 140 1 2 0.0 18.84206307654961 16.213230862932743 17.998554251802865
 141 1 2 0.0 17.254845026197323 15.56703909477133 19.797626253852034
 142 1 11 0.0 16.204495302083988 17.18515287728003 21.6421974869691
 143 1 11 0.0 18.87189221514083 20.632496329255282 19.47396696882269
 144 1 2 0.0 17.231014132229067 19.635639749539596 21.207142267494596
 145 1 6 0.0 18.234499091705324 21.24403646804539 19.969872962554682
 146 1 6 0.0 16.389843678414564 16.281330655849207 22.059814132022257
 147 1 11 0.0 19.558955175096326 22.017611291183055 25.35062810257068
 148 1 6 0.0 19.226664057207067 21.604679777904384 24.487478298246348
 149 1 1 0.0 18.96443290676188 16.496975182021995 25.293097780811205
 150 1 1 0.0 19.11514526018081 16.844196354178884 23.94070924331129
 151 1 1 0.0 21.471306137828023 17.273543202334636 24.319731102902924
 152 1 1 0.0 20.364467239128615 17.260950062619088 23.45166470104948
 153 1 2 0.0 18.257707049419977 16.80697091565974 23.28004358483452
 154 1 11 0.0 20.488514106607777 17.694399596559787 22.103596944173944
 155 1 6 0.0 20.068586303381267 17.07658595052804 21.419433512654273
 156 1 2 0.0 16.270377040333877 21.80920949766024 21.031220627732054
 157 1 10 0.0 15.87513896217328 21.389880094261354 23.69175939447566
 158 1 4 0.0 16.80791039717514 20.684668832421888 23.349545299147962
 159 1 9 0.0 16.362768718764933 22.122031635507152 19.403281695378723
 160 1 1 0.0 13.109020303068935 14.484307435205915 17.625652501536628
 161 1 1 0.0 12.961312368031964 13.786649878115906 18.83859740797736
 162 1 2 0.0 13.808824415274904 13.72306778822949 19.513309387702076
 163 1 12 0.0 14.418485081672868 15.129014268657416 17.266229746642182
 164 1 7 0.0 15.514893443504665 14.610362225477703 17.8667936559078
 165 1 9 0.0 15.202136290992204 13.889502051110176 18.440542824762957
 166 1 1 0.0 13.702361575094516 19.68219770405356 17.1849776807181
 167 1 1 0.0 13.097435643480367 20.648811258099474 18.016349718960598
 168 1 2 0.0 13.71624594450941 21.228043658663434 18.69538698276891
 169 1 12 0.0 15.190997334697617 19.476034169016344 17.24643780206939
 170 1 4 0.0 15.88388264649291 19.940238745573367 18.13165963937736
 171 1 1 0.0 21.84185381287871 19.73975702771533 22.570003690314703
 172 1 1 0.0 21.087173364944164 20.299824173359436 23.620713671711965
 173 1 1 0.0 21.699835499815997 21.130882375570923 24.583882229514654
 174 1 2 0.0 20.025635223705574 20.077438535664076 23.685290186220936
 175 1 10 0.0 21.238834458345377 18.755713891409908 21.603817528529447
 176 1 4 0.0 21.50898870284225 18.80927388337551 20.417309943855457
 177 1 10 0.0 19.9192448806367 21.266633604810053 18.820058182399126
 178 1 4 0.0 20.755436149299896 20.687096688746628 18.14731705082493
 179 1 1 0.0 13.13372723738751 17.708649185715284 23.71373122853531
 180 1 1 0.0 12.434904738784686 17.093896887417433 24.78026521785876
 181 1 1 0.0 13.03136306778243 15.996608293830594 25.43426610193787
 182 1 1 0.0 14.414885498617089 17.261622813223948 23.32276201209989
 183 1 1 0.0 15.016562846318504 16.216493872560797 24.051344044821004
 184 1 1 0.0 14.329062693067405 15.581420479957753 25.095076938743688
 185 1 2 0.0 12.681557475366702 18.535138204408277 23.17417426232857
 186 1 2 0.0 16.02170740233361 15.880241322355312 23.815645313481088
 187 1 10 0.0 15.12433185709566 17.897969807634826 22.15090505326229
 188 1 4 0.0 14.730828361907106 18.938261526980252 21.648037018109587
 189 1 1 0.0 28.730806599413857 18.931792184441854 24.17489314663788
 190 1 1 0.0 29.839389625179848 18.637957074979987 23.37284244305876
 191 1 1 0.0 30.595920384692462 17.48813921046057 23.62775001423928
 192 1 1 0.0 28.37290915250143 18.075609211798056 25.232271518426465
 193 1 1 0.0 30.25361674933617 16.619168944481007 24.67848697928426
 194 1 2 0.0 28.162242355632515 19.83349670968587 23.979009704631917
 195 1 2 0.0 30.122837944614936 19.30858227861475 22.5667752312597
 196 1 2 0.0 31.472537718771072 17.303703811828914 23.028166689283633
 197 1 11 0.0 31.132547787708603 15.570634391831074 25.060348361719342
 198 1 1 0.0 22.559860646261782 12.838002490129975 18.13773291421192
 199 1 1 0.0 22.610027487018392 12.53478941134793 19.506458316840458
 200 1 2 0.0 22.687568149106657 13.864383209891228 17.80563394063841
 201 1 2 0.0 22.768822868631556 13.330166155477409 20.22603917905107
 202 1 1 0.0 31.465651546585878 16.59651816585707 17.365417782533676
 203 1 1 0.0 31.40041582867522 19.34657948350459 17.905492228519574
 204 1 1 0.0 30.99776912910551 18.42727107500767 18.887974184505197
 205 1 1 0.0 31.03618793199587 17.04839721618934 18.626740816469553
 206 1 2 0.0 31.508951423237242 15.535691603071083 17.15118956679784
 207 1 11 0.0 30.744400142928846 16.14686704918699 19.681560001523174
 208 1 11 0.0 31.30850169886142 20.72943271936626 18.17619169495293
 209 1 2 0.0 30.66996303540786 18.784671036408785 19.861065563406466
 210 1 6 0.0 30.369716882412327 21.095074466150393 18.280225671651873
 211 1 6 0.0 31.02016899643747 16.46316010646753 20.60328025293068
 212 1 1 0.0 24.080098301159072 16.824133374305845 21.456863979866274
 213 1 1 0.0 23.13138363853783 15.800478480333101 21.600684704911796
 214 1 1 0.0 23.251369583213066 14.874010240338427 22.646591804038774
 215 1 1 0.0 25.173845886504868 16.912186323341455 22.34079149537308
 216 1 1 0.0 25.272114633030178 16.002035051709473 23.405659740225115
 217 1 1 0.0 24.318339504078743 14.977298308711234 23.553431737823708
 218 1 2 0.0 23.985431884463413 17.52219058177944 20.630792509849773
 219 1 2 0.0 22.30720103642737 15.722159471938847 20.89779909650872
 220 1 2 0.0 22.522712056415266 14.074587913483867 22.745855616216485
 221 1 11 0.0 24.48267581490836 13.993044545702894 24.55429109634905
 222 1 11 0.0 26.216365129863423 17.85674335110958 22.132039415775225
 223 1 2 0.0 26.122162579126115 16.054125799957795 24.081290469317214
 224 1 6 0.0 26.454550812149566 18.426607908646503 22.934959345001165
 225 1 6 0.0 24.52900651423605 13.035299676121175 24.22851473870517
 226 1 1 0.0 25.437741216208213 22.036420533884368 19.684533686066885
 227 1 11 0.0 25.75717112588411 21.712709510806498 22.08487607159354
 228 1 2 0.0 26.308610751792408 21.413366810836838 19.496850471489026
 229 1 6 0.0 26.75581359110987 21.86968572796742 22.02297794459864
 230 1 2 0.0 22.442043639954388 17.60259478573566 23.96111272650146
 231 1 10 0.0 32.351748082946926 21.564141211851855 18.526604202671138
 232 1 1 0.0 26.612916363719126 15.815514120864417 19.879481201338763
 233 1 1 0.0 26.065129602888476 15.021023843108338 18.853783799311437
 234 1 1 0.0 25.54721125770479 15.650382997261856 17.70538053917324
 235 1 1 0.0 26.6102933431192 17.219547655352834 19.777100649977655
 236 1 1 0.0 26.123641742747697 17.829722140506334 18.609751238791244
 237 1 1 0.0 25.535566658621693 17.0577400041507 17.590323428809295
 238 1 2 0.0 26.98620955705326 15.351683388588672 20.788235828350114
 239 1 2 0.0 25.09703246684209 15.037856942556912 16.929585014120512
 240 1 2 0.0 26.083487463368165 18.914387232710197 18.559039148518018
 241 1 10 0.0 26.93822472286922 18.079092582166158 20.963679618925596
 242 1 12 0.0 25.96612460391649 13.525905600837788 18.994903981255696
 243 1 4 0.0 25.76088735227485 12.778084927382695 18.05445284596179
 244 1 4 0.0 27.70069373830345 19.024838602906414 20.865606850773194
 245 1 7 0.0 25.927060449510684 13.06856467337158 20.268587271477934
 246 1 9 0.0 25.998698774894294 13.848596144559087 20.845744755741954
 247 1 2 0.0 22.252947058479478 11.855037598482358 23.728185123196077
 248 1 1 0.0 23.199587522916044 20.081291439486158 22.44260269669028
 249 1 1 0.0 23.828835037373207 20.883188345626067 23.41021477599819
 250 1 1 0.0 23.08493563863234 21.366308445913262 24.498347301444536
 251 1 2 0.0 23.78181540353732 19.682115907410957 21.61784060226172
 252 1 2 0.0 23.57533984769546 22.000192169379005 25.232110704404334
 253 1 10 0.0 25.283605962834432 21.231425655642482 23.298397609014227
 254 1 4 0.0 26.017715379058778 21.154948316177354 24.266313353214024
 255 1 1 0.0 29.63119436800581 12.806505388195463 23.350524365622434
 256 1 1 0.0 28.935795992933514 12.374029163273104 22.21164278372186
 257 1 1 0.0 29.121030598997603 13.055387405244044 20.9940318422941
 258 1 1 0.0 30.478977107598755 13.922996302733482 23.301775005778197
 259 1 1 0.0 30.65427202622605 14.59327119989475 22.078511547185293
 260 1 1 0.0 29.96574009627665 14.179654936988086 20.91722850298283
 261 1 2 0.0 29.508681809835185 12.268423721942266 24.281518704241222
 262 1 2 0.0 28.57087135239001 12.739129596154454 20.114250228348222
 263 1 2 0.0 31.359372491558343 15.411759243554616 22.029065137508347
 264 1 10 0.0 31.26377801361968 14.294477462139344 24.526993621764134
 265 1 10 0.0 30.104260665453943 14.918462236935337 19.60971557031144
 266 1 4 0.0 31.90128179859687 13.44565882872598 25.126167156560083
 267 1 4 0.0 29.616322950538173 14.492074145529376 18.575038869052726
 268 1 4 0.0 28.03244243093001 20.419213446612442 26.81584932395428
 269 1 1 0.0 18.71903530169311 19.790748734219154 33.89345110654942
 270 1 1 0.0 17.507832801205847 20.49864627759437 33.95440665131105
 271 1 2 0.0 19.616975074145767 20.279796870066896 33.53182704316682
 272 1 11 0.0 17.481992640371132 21.840045868818247 33.49941889319696
 273 1 6 0.0 18.040786354790104 22.02510946519421 32.675001560472275
 274 1 11 0.0 18.5124312444911 12.604439451351405 25.56921881033901
 275 1 6 0.0 18.384831742338452 13.536486500257945 25.94381492397891
 276 1 11 0.0 14.608593015853971 13.229462540009582 25.842132770478536
 277 1 6 0.0 15.067022378164003 12.584235984004247 26.47413704434697
 278 1 1 0.0 15.27023230483467 11.940032244896111 32.295111602957775
 279 1 1 0.0 15.943715411407888 12.505508512259095 33.39699404391776
 280 1 11 0.0 15.373154678780441 12.50041126890094 30.997247144213905
 281 1 2 0.0 16.541395677028206 13.396395619928834 33.24202233540088
 282 1 6 0.0 15.784648458551315 11.88448178193898 30.306222403337806
 283 1 1 0.0 21.674585710070698 14.495005405795437 31.138590621070172
 284 1 1 0.0 21.52987755313068 15.039950227465807 29.850837928314323
 285 1 1 0.0 21.69726286706165 14.23162047074358 28.714030557913578
 286 1 1 0.0 22.02905791958175 13.145202982137466 31.296942294287295
 287 1 1 0.0 22.15236194829881 12.334375399826184 30.154507309075044
 288 1 1 0.0 21.986896789088746 12.861268471505653 28.8642469190829
 289 1 2 0.0 21.526749072105538 15.124357347322844 32.00818396517354
 290 1 2 0.0 21.282023135482724 16.08988687552237 29.73105519971883
 291 1 2 0.0 21.585842264776264 14.679551368281423 27.734775022451615
 292 1 11 0.0 22.145422365545066 11.943771015695368 27.791624804542106
 293 1 6 0.0 21.565020649984547 12.785693973986207 33.294965509216766
 294 1 6 0.0 11.930408177994419 12.769176245252696 33.66170422833553
 295 1 1 0.0 16.650625686103584 19.692358863835906 26.169832777235975
 296 1 1 0.0 16.818058032845748 18.68352503218353 27.128688538696103
 297 1 1 0.0 15.696942017490345 18.11182142552245 27.746040264961195
 298 1 1 0.0 15.358048430407106 20.127893092804463 25.815282877181783
 299 1 1 0.0 14.23812073262739 19.561298022606433 26.452790850990603
 300 1 1 0.0 14.403848297298163 18.553381198200704 27.424102543197467
 301 1 2 0.0 17.530303408009676 20.132923452385217 25.713652565019366
 302 1 2 0.0 17.815856002798093 18.348505946294427 27.395860773491002
 303 1 2 0.0 15.830620438827452 17.327657258739496 28.48320605675158
 304 1 11 0.0 13.310044096859496 17.923062385027297 28.073213243650848
 305 1 2 0.0 13.242884229886885 19.89667334240615 26.175613674821275
 306 1 6 0.0 13.495972988686345 16.97807302743311 28.386690876126448
 307 1 1 0.0 19.74734124122344 18.667644813789487 30.67949466204429
 308 1 1 0.0 18.794832728929524 19.615696349512195 30.276677220145324
 309 1 1 0.0 19.069188431269126 20.98513950528839 30.41071814475947
 310 1 1 0.0 20.991247348333008 19.0797348579838 31.185053965760336
 311 1 1 0.0 21.273716117457962 20.454516778888852 31.291313889724147
 312 1 1 0.0 20.29306566042169 21.41209645573388 30.95531208434689
 313 1 2 0.0 19.5078575042622 17.61120703306733 30.631549614215782
 314 1 2 0.0 17.832224631156496 19.28948368301476 29.894499442888126
 315 1 2 0.0 18.30627855752631 21.709434870392798 30.14393543503791
 316 1 11 0.0 21.84057040350358 18.10639625907708 31.76971813548091
 317 1 6 0.0 21.362096846368644 17.428130825664237 32.34980826683807
 318 1 2 0.0 12.1248412831472 22.099155350972868 30.65188275316296
 319 1 1 0.0 20.056091158041784 16.590377385267566 26.170395733627647
 320 1 1 0.0 21.306119467128617 17.01874310045886 25.687264938071085
 321 1 2 0.0 19.912575164512365 16.397511144875367 27.2293033288413
 322 1 2 0.0 17.993874574724224 16.191955177818098 25.667662410919256
 323 1 1 0.0 18.634252810065778 12.608882404567826 30.68601769491431
 324 1 1 0.0 18.398478685969557 13.612129540968073 29.729901492020225
 325 1 1 0.0 18.44013223512877 13.277242963828025 28.361301142384953
 326 1 1 0.0 18.718268908298025 11.959429324087015 27.94228048226963
 327 1 2 0.0 18.612516619247305 12.876012998869838 31.737823492111865
 328 1 2 0.0 18.264132427610257 14.049823984226927 27.6221809978057
 329 1 12 0.0 18.110549264607876 15.01710892860376 30.19266225683373
 330 1 4 0.0 18.006116367392888 15.328325697603228 31.367337363124857
 331 1 7 0.0 17.96048121045631 15.93779568885853 29.21395302987226
 332 1 9 0.0 18.078250937094047 15.467348052909976 28.370412203006392
 333 1 7 0.0 13.57421751721403 22.004666269619484 33.48984354120846
 334 1 1 0.0 14.430377606089419 16.08607351650692 31.270362348182147
 335 1 1 0.0 13.652726620878722 17.02315015658093 31.975648016951556
 336 1 1 0.0 12.689038841738688 16.556400953990597 32.89262335039227
 337 1 1 0.0 14.246968540814654 14.7029775285343 31.45284048808664
 338 1 1 0.0 13.284341024668405 14.2618708360531 32.378574927411854
 339 1 1 0.0 12.494076925731472 15.17648604385818 33.10263880294328
 340 1 2 0.0 15.158790446678053 16.43304444471899 30.54415630319065
 341 1 2 0.0 12.077816352423065 17.267013946703443 33.44088363221412
 342 1 2 0.0 13.08912122567421 13.201513402805352 32.46811704448285
 343 1 10 0.0 14.962684179496671 13.745456668740733 30.535484061316865
 344 1 12 0.0 13.850843660557278 18.494967118949496 31.724196091780314
 345 1 4 0.0 14.76959978142692 18.943658126257972 31.05973486004665
 346 1 4 0.0 15.17089370634872 14.053736111251702 29.37546590242456
 347 1 7 0.0 12.88669878381754 19.306433232279705 32.21663949892538
 348 1 9 0.0 12.240627780733595 18.73089713197599 32.66170487130305
 349 1 2 0.0 22.0428951111342 16.75695604571208 33.85579594169777
 350 1 10 0.0 21.962568824425976 12.072349512911671 26.421863071578283
 351 1 4 0.0 21.627112421042266 13.11209973134057 25.881089141183473
 352 1 10 0.0 20.9030662140939 21.847287308423564 25.640865344488677
 353 1 2 0.0 12.110624800209564 15.723348496116467 28.61611414285966
 354 1 10 0.0 12.104203252687869 18.473765130868806 28.481671758710387
 355 1 2 0.0 12.521828365589725 15.509664387862042 26.260603338212377
 356 1 10 0.0 15.037545265107315 14.54599813255463 25.90872209240307
 357 1 4 0.0 15.972571049420717 14.859888547699045 26.62195662961374
 358 1 4 0.0 21.099337063851337 18.785985334629537 27.882805834563914
 359 1 1 0.0 28.30201168518469 18.551695503002325 32.662039718960955
 360 1 1 0.0 27.629337604093656 19.142146810916348 31.57913195578308
 361 1 1 0.0 28.313410401979798 19.408857380418453 30.38116297001702
 362 1 1 0.0 29.663425830025187 18.222643717666582 32.548680627572175
 363 1 1 0.0 30.345621547289035 18.514230539060264 31.353207857644545
 364 1 1 0.0 29.681930911671746 19.110155940365388 30.2647997627732
 365 1 2 0.0 27.760695462873418 18.33076068387524 33.57794493817385
 366 1 2 0.0 26.577434800406515 19.39590666774383 31.669073942991048
 367 1 2 0.0 27.78797262877969 19.884791768875193 29.56033044228494
 368 1 11 0.0 30.414449620929634 19.52557911448474 29.11783676451838
 369 1 11 0.0 30.32151212604654 17.5228168149809 33.59563061454817
 370 1 2 0.0 31.40218134197992 18.281844645224954 31.2737749528772
 371 1 6 0.0 30.250715378975794 20.48169607945862 28.82567740944535
 372 1 1 0.0 29.127264092417263 16.911141762964675 25.47267745079603
 373 1 11 0.0 27.273461817002275 18.410022216533935 26.0639088300057
 374 1 2 0.0 28.873797885543965 16.266919008807008 26.310628403237757
 375 1 6 0.0 26.503252848085236 17.752574896322205 26.075849581263842
 376 1 6 0.0 31.615972167143404 15.732031805830546 25.93567283210829
 377 1 1 0.0 30.01341419919838 12.112935155168266 33.92540992443611
 378 1 1 0.0 29.27081290152795 12.418556475183482 31.637788833246237
 379 1 1 0.0 30.2667109615163 12.553344489062711 32.61639804957197
 380 1 11 0.0 31.544267709587338 13.044497744096025 32.25382331206808
 381 1 2 0.0 29.467970956304775 12.73599236452062 30.619588220405277
 382 1 6 0.0 32.32098197662729 12.40810461076722 32.387452356772734
 383 1 1 0.0 28.945356458095134 12.054267957439848 26.81962444571626
 384 1 1 0.0 29.804127753666226 12.93422686968328 27.495970412439178
 385 1 1 0.0 30.81371425521679 12.428101917345028 28.326954250931205
 386 1 2 0.0 28.186698374130064 12.463879551141167 26.160342481544344
 387 1 2 0.0 29.69564304455597 14.006787723553915 27.365190689367967
 388 1 2 0.0 31.4840853719089 13.111547035409375 28.840658429266387
 389 1 11 0.0 22.26556514461849 12.59654475200507 32.588352653796576
 390 1 2 0.0 22.216429591677517 20.775169028250943 31.724164418866824
 391 1 11 0.0 29.35556066241151 22.051033846513178 32.4541677272674
 392 1 6 0.0 29.991928155579952 21.409890877190318 32.91230380707224
 393 1 11 0.0 22.347510503005722 17.431878701463468 26.55302647986846
 394 1 6 0.0 23.280557001600894 17.30339424402227 26.180769298288098
 395 1 4 0.0 32.30630344329687 18.6437369815212 33.621826756317006
 396 1 1 0.0 25.758461288215745 15.665237656885498 33.42221533508126
 397 1 1 0.0 25.168283575238675 16.557337240698033 32.49719971407207
 398 1 1 0.0 23.069956397898373 16.440106914220358 33.7045521188121
 399 1 1 0.0 23.824839029159847 16.9642105878254 32.636053617974724
 400 1 2 0.0 25.757616968642633 16.956405800576263 31.6777450981515
 401 1 10 0.0 23.222544679336043 17.990989955178076 31.70434641108594
 402 1 12 0.0 27.20367256414095 15.247552440534712 33.31476379447646
 403 1 4 0.0 23.906480172445136 18.685428464091334 30.970880362024232
 404 1 7 0.0 27.81672506890901 15.531128967014475 32.142587065087234
 405 1 9 0.0 27.15547676256428 15.976197337581757 31.58459130987808
 406 1 10 0.0 31.810872897333436 14.275173000034371 31.67766554246847
 407 1 4 0.0 30.95851590894348 15.140131073176736 31.561152097781388
 408 1 1 0.0 32.04942682501659 20.629625471727138 26.810338146100612
 409 1 1 0.0 32.46860746126478 19.773304134463235 27.845512049132893
 410 1 2 0.0 31.00238900399671 20.63795400268478 26.521326756931476
 411 1 10 0.0 31.507700907584102 18.875054800384024 28.562119403778645
 412 1 4 0.0 31.82254230452524 17.733134218638725 28.857915166765146
 413 1 1 0.0 25.912111605374886 12.177485104964502 28.87438497485341
 414 1 1 0.0 25.301282192415858 13.189155885773445 28.1099918860717
 415 1 1 0.0 25.102440786059667 13.0344743062784 26.725147728661085
 416 1 2 0.0 25.058378611959586 14.138307314456952 28.57911626655239
 417 1 10 0.0 24.67270932366701 14.221666082080292 25.90627304043768
 418 1 10 0.0 26.319861052713303 12.474636481854908 30.292213550256534
 419 1 4 0.0 26.049883140212888 13.53559879202989 30.82913878710561
 420 1 4 0.0 24.58164300338388 15.336613799572405 26.391891178518254
 421 1 1 0.0 24.699287773690294 18.970471450583002 27.253168451236217
 422 1 1 0.0 23.415067414629473 19.30162630772739 27.734520383102645
 423 1 1 0.0 23.229111890664687 20.54317155113165 28.36476397466871
 424 1 1 0.0 25.770592331690032 19.885877980232227 27.361835667976784
 425 1 1 0.0 25.54335122021252 21.1342236534035 27.980695517867403
 426 1 1 0.0 24.270873466269812 21.479286157689863 28.474376189148124