LAMMPS data file via write_data, version 29 Oct 2020, timestep = 10000

6505 atoms
14 atom types
6902 bonds
18 bond types
10734 angles
23 angle types
18821 dihedrals
42 dihedral types

9.512286 53.735614 xlo xhi
10.5806 53.752614 ylo yhi
5.9814 64.665814 zlo zhi

Masses

1 12.01
2 1.008
3 12.01
4 16
5 14.01
6 1.008
7 16
8 14.01
9 1.008
10 12.01
11 14.01
12 12.01
13 1.008
14 16

Pair Coeffs # lj/cut/coul/long/omp

1 0.086 3.39967
2 0.015 2.59964
3 0.086 3.39967
4 0.21 2.95992
5 0.17 3.25
6 0.0157 1.06908
7 0.2104 3.06647
8 0.17 3.25
9 0 0
10 0.086 3.39967
11 0.17 3.25
12 0.086 3.39967
13 0.0157 1.06908
14 0.2104 3.06647

Atoms # full

1 1 2 0.0872 12.003714693932235 12.496374976558096 13.03378655990306 0 0 0
2 1 2 0.0839 20.353848166883413 16.76535986693959 12.957254198626089 0 0 0
3 1 7 -0.379 10.619474774770227 14.826632775616448 12.141992301608475 0 0 0
6463 1 9 0.2886 9.939866098682614 15.349254938224497 11.636332489665806 0 0 0
4 1 2 0.0 11.172592458174927 17.891721834619656 12.104051187675264 0 0 0
5 1 2 0.0 12.60692774579486 21.474042394436182 10.181452563553934 0 0 0
6 1 2 0.0872 18.43035920546157 22.504996028936194 12.84525803454015 0 0 0
7 1 2 0.0 17.866099934738244 23.098235770887445 6.562034666265573 0 0 0
8 1 4 -0.2623 17.158704934971837 19.71772404534569 13.191099097178297 0 0 0
6464 1 9 0.2886 18.716807328181655 19.43010377656833 11.848109302412405 0 0 0
48 1 7 -0.379 19.21501024859961 19.293294611262247 12.673629450314621 0 0 0
62 1 2 0.0 14.801767083634733 19.670226429229537 13.30224347851726 0 0 0
9 1 2 0.0839 11.383737941842375 32.070860695358924 12.975793054950103 0 0 0
10 1 4 -0.2623 9.940263290678867 25.781241858548498 11.675235147104594 0 0 0
11 1 2 0.0866 18.89201300158785 12.199941958089715 18.737414696818792 0 0 0
12 1 1 -0.0632 18.45362998370073 11.256579008784904 19.049592432862255 0 0 0
13 1 2 0.0871 20.164851371735228 14.919353724958924 20.42372277890726 0 0 0
14 1 1 0.04 11.19301475633055 13.923041592440532 14.450665260822941 0 0 0
15 1 4 -0.2763 18.318082827592438 15.238004689148111 18.685398623214905 0 0 0
16 1 1 -0.0521 12.645997184090868 12.40083759367196 16.398906680393463 0 0 0
17 1 2 0.0866 14.37945862770576 15.385007536179307 14.285551611368618 0 0 0
18 1 1 -0.0632 17.18947760103917 14.03837379625655 15.670581871537694 0 0 0
19 1 1 0.0077 17.897816590092372 15.225461461321084 15.890810409669953 0 0 0
20 1 1 -0.0444 17.393923473342436 16.452196292079627 15.496515063664578 0 0 0
21 1 1 -0.0091 16.119598854142374 16.5534208347444 14.961761096034994 0 0 0
22 1 10 0.2266 19.262473872851643 15.314789559348712 17.916792122249152 0 0 0
23 1 11 -0.2514 19.118630832019566 15.265664886444585 16.551295710281984 0 0 0
24 1 2 0.0896 17.970641923681512 17.352080461628034 15.687163236491932 0 0 0
25 1 1 -0.0632 13.230096100465868 17.0195867962603 18.218513774790356 0 0 0
26 1 2 0.0866 14.143431829262214 16.523657052716825 18.565968568143177 0 0 0
27 1 1 0.04 12.580921189491239 11.982921424505108 15.068594199037083 0 0 0
28 1 4 -0.2763 12.013573659788717 12.84566502751752 19.085728700446086 0 0 0
29 1 1 -0.0645 15.382125815697412 15.367013120275283 14.702235128074982 0 0 0
30 1 1 -0.051 11.98171626199114 12.807826993207271 14.075341968727734 0 0 0
31 1 6 0.1829 19.848967049803147 15.723502315874681 16.022968197473684 0 0 0
32 1 2 0.0872 13.176448803137848 11.783039702427365 17.129613655577835 0 0 0
33 1 2 0.0839 15.377505458844615 13.194811175257632 14.856895489334772 0 0 0
34 1 2 0.0866 17.61346080887218 13.086528124895876 15.984031294636782 0 0 0
35 1 1 0.0078 11.99762900976416 16.357194402758914 18.276550220796057 0 0 0
36 1 1 -0.0801 15.931672351836996 14.11005536387231 15.047073118618492 0 0 0
37 1 1 0.0278 11.92691619805582 13.526576947430081 16.81527460776244 0 0 0
38 1 10 0.2266 11.901008302287009 13.782560766445846 18.31220439509423 0 0 0
39 1 6 0.1829 12.263901921277485 15.054556026129617 19.831400577161304 0 0 0
40 1 11 -0.2514 11.983975082993853 15.05924702562802 18.85691912854777 0 0 0
41 1 1 0.0078 17.46419802026716 11.237198570257263 20.06328539771407 0 0 0
42 1 1 -0.0521 11.15331732731763 14.223484328937111 15.847958300309992 0 0 0
43 1 1 -0.043 10.796875842404656 17.047614239962954 17.942959484979646 0 0 0
44 1 12 0.2765 13.074899295919602 10.603816820440262 14.779499974923255 0 0 0
45 1 2 0.0872 10.47504745512291 14.98217405512337 16.208342141279346 0 0 0
46 1 12 0.2765 10.259030008307798 14.663343573185957 13.463526889065117 0 0 0
47 1 2 0.0896 9.863253084663794 16.514232113983198 18.03698205842408 0 0 0
6472 1 9 0.2886 14.551573008765073 11.091544143218382 14.32378857065939 0 1 0
871 1 7 -0.379 13.886752299139692 10.67370025559608 13.759227304589498 0 1 0
49 1 8 -0.3506 15.683539455250237 17.868524904364964 14.880138808051129 0 0 0
50 1 6 0.157 14.986632873129166 18.11072540289559 14.206050621004868 0 0 0
51 1 1 0.0078 10.771067107654188 18.39022158855746 17.472557477882805 0 0 0
52 1 2 0.0866 11.917100400588202 20.99820636460357 20.558844271812223 0 0 0
53 1 4 -0.2763 18.39050628988806 20.62408963544104 18.62539431907258 0 0 0
54 1 1 -0.0521 18.978073623829705 20.73270503293201 15.71130298633124 0 0 0
55 1 10 0.2266 19.036058377551015 21.50976876087331 18.09422313842061 0 0 0
56 1 2 0.0839 14.248181631007748 18.794905510343405 17.600192377101116 0 0 0
57 1 1 0.04 18.779366911196618 20.977454761697157 14.346121015482977 0 0 0
58 1 1 -0.0801 13.268199487342343 18.321175620787365 17.7020045483363 0 0 0
59 1 2 0.0872 19.120567945493555 19.714082293933483 16.060529569664094 0 0 0
60 1 2 0.0866 12.176878551199817 19.967717779958495 16.865413560178617 0 0 0
61 1 1 -0.0632 12.067558581138044 18.983810813770024 17.31096845253919 0 0 0
63 1 12 0.2765 18.32191059200509 19.831716704718964 13.501198372994581 0 0 0
64 1 2 0.0866 19.495232612386186 20.42486872816005 20.651648522977386 0 0 0
65 1 1 -0.0632 15.328054697181168 23.79132429872129 16.082597363983503 0 0 0
66 1 1 -0.0632 14.93244162437148 23.892381916203817 18.483435746254315 0 0 0
67 1 2 0.0866 15.195395555488073 23.2812700464408 15.134062750223979 0 0 0
68 1 2 0.0866 14.513028202183698 23.46288928356418 19.390276339931052 0 0 0
69 1 1 0.0078 16.132867755272446 24.942618051647248 16.15973337866593 0 0 0
70 1 1 -0.0521 18.567769852574877 22.303458330125743 13.904889619215245 0 0 0
71 1 11 -0.2514 19.992112643501745 22.30217993387938 18.724491595110287 0 0 0
72 1 10 0.2266 17.912907639091106 24.710761531817273 14.369160018419121 0 0 0
73 1 1 -0.0531 18.53376778089975 23.070637721488342 16.20324369996682 0 0 0
74 1 1 0.0078 20.361023174080998 22.34254177817898 20.10154309500313 0 0 0
75 1 1 0.0278 18.346099017382723 23.341246179358965 14.836545282987087 0 0 0
76 1 1 -0.0801 14.734568416453051 23.26472090387521 17.24325118834111 0 0 0
77 1 2 0.0871 18.39948734046378 23.85796834467638 16.937752969792342 0 0 0
78 1 2 0.0839 14.13530673660062 22.362032077945276 17.184695200427914 0 0 0
79 1 1 0.0278 18.87185259954142 21.780572423323747 16.6386123127944 0 0 0
80 1 6 0.157 14.976351381406166 18.147227749420008 14.20605618221495 0 0 0
81 1 1 0.0278 9.5521145269006 24.628720919370362 16.278568602615223 0 0 0
82 1 2 0.0839 9.959548798454172 22.48106704073071 20.598305628438403 0 0 0
84 1 2 0.0839 20.50793190076136 18.547714492055224 19.24786553954863 0 0 0
85 1 6 0.1829 20.488219806933454 22.950983894128882 18.127301001876837 0 0 0
86 1 6 0.1829 9.567525009337972 19.3256054626684 16.035009174217496 0 0 0
87 1 2 0.0866 12.6534422421872 28.926984362512112 20.45216412585373 0 0 0
88 1 2 0.0871 15.497296114801182 31.675783584546366 16.215711099564487 0 0 0
89 1 2 0.0839 12.36451845275768 30.480703962809887 18.564028801132352 0 0 0
90 1 1 -0.0521 10.768814889921877 26.385714890729247 14.423480057294793 0 0 0
91 1 1 0.0278 11.212261103555877 26.36800447373332 15.767425535599662 0 0 0
92 1 11 -0.2514 20.4366638233426 30.503721768176568 17.04159317412388 0 0 0
93 1 2 0.0896 16.849474403113703 26.515697181844324 17.451922713916293 0 0 0
94 1 1 -0.043 16.25110825926406 25.616097645812328 17.385715900687078 0 0 0
95 1 2 0.0871 11.186689551922106 25.18720430813732 17.5957302499623 0 0 0
96 1 11 -0.2514 12.064004098025285 28.73778780133 15.987885080159202 0 0 0
97 1 11 -0.2514 15.865293540167555 25.741626841513604 19.778756670211234 0 0 0
98 1 6 0.1829 12.830090497655208 29.302394575398107 16.342881317639062 0 0 0
99 1 2 0.0866 17.959906333244305 28.378447699310293 17.86564081094064 0 0 0
100 1 1 -0.0632 19.998875261964272 27.12109062405241 20.275521958245616 0 0 0
101 1 11 -0.2514 17.82894628056728 30.650655424820663 19.332426632821193 0 0 0
102 1 4 -0.2763 13.108711812669723 27.043495623523725 17.037142602282874 0 0 0
103 1 6 0.1829 15.518510893116774 26.690093727426973 19.83598694963356 0 0 0
104 1 1 -0.0632 18.488107790814173 28.328833304255603 18.809858563024754 0 0 0
105 1 10 0.2266 12.211325813485185 27.380730391274202 16.2829698749329 0 0 0
106 1 1 -0.0801 10.910813634836138 31.31028329554895 13.594918852168021 0 0 0
107 1 1 -0.0801 19.25178987106928 27.186587582271095 19.09383793685658 0 0 0
108 1 4 -0.2763 18.431432098533627 25.223583077979537 13.394236825314538 0 0 0
109 1 4 -0.2763 16.05885629500656 29.909030937595592 18.074115277573576 0 0 0
110 1 1 -0.0632 11.719164035878219 30.453190869670554 14.347573675567093 0 0 0
111 1 1 0.0078 10.551205090982728 28.37795957036022 20.557014849666196 0 0 0
112 1 2 0.0866 18.661270842856126 31.87696751050228 15.703041434542362 0 0 0
113 1 1 0.0078 20.265942741677453 31.90070362881362 17.141502263442394 0 0 0
114 1 10 0.2266 16.724128596270806 30.836846778099765 18.5001433671723 0 0 0
115 1 1 0.0078 11.138212005208414 29.479854201569548 15.17838014998381 0 0 0
116 1 1 0.0078 15.669824190761608 25.084400359383846 18.54682622692612 0 0 0
117 1 2 0.0839 19.28093396751334 26.35924341141425 18.39049951505414 0 0 0
118 1 2 0.0872 11.273762202710007 27.052695184157347 13.719461799378287 0 0 0
119 1 6 0.1829 19.57410205648517 29.973820480537753 17.050816664944456 0 0 0
120 1 6 0.1829 18.319513249719794 31.486261763205167 19.625229528212614 0 0 0
121 1 1 -0.0632 11.653668131482357 29.09979192411352 20.057628991155145 0 0 0
122 1 6 0.1829 16.684840096685846 26.31730103120089 14.717568849462198 0 0 0
123 1 1 -0.0801 11.486298451334871 30.00973592486979 19.004117623203875 0 0 0
124 1 11 -0.2514 16.897334821227798 25.382765481736396 15.045981337114396 0 0 0
125 1 2 0.0866 12.803068918543985 30.567211653035454 14.298643202510222 0 0 0
126 1 1 0.0078 18.46450560679905 29.422342066777468 19.697883523543858 0 0 0
127 1 1 -0.0531 10.703116318765296 25.36898878677497 16.63841356107671 0 0 0
128 1 1 -0.0632 10.201736480636768 30.288137730717928 18.500611317257263 0 0 0
129 1 2 0.0866 10.119602804640973 30.95662284298545 17.646940626516052 0 0 0
130 1 1 0.04 9.721045068914488 25.51069435653129 14.014252411042966 0 0 0
131 1 1 -0.043 9.71236120509608 29.399781319125502 15.264459340921551 0 0 0
133 1 1 0.0277 14.331513406136825 16.839132655733124 21.766294862655265 0 0 0
134 1 1 -0.0531 14.508825942221833 15.42072416883204 21.50233201526248 0 0 0
135 1 2 0.0871 13.61554020003075 14.819772102260453 21.391129853699336 0 0 0
136 1 6 0.1829 17.933718318259448 13.155941045437135 20.74900324217177 0 0 0
137 1 10 0.2266 15.884482301351772 13.199187343474163 20.973425728450536 0 0 0
138 1 4 -0.2763 11.928514021313394 16.71984067345873 21.81430470672389 0 0 0
139 1 11 -0.2514 17.12786109808992 12.544544780706774 20.68855213641025 0 0 0
140 1 10 0.2266 12.86988202018105 17.48669386767955 21.896746471469374 0 0 0
141 1 1 0.0277 15.774374533744934 14.724251667758782 21.374704307698728 0 0 0
142 1 4 -0.2763 14.856830481309476 12.562367587265236 20.835015413804708 0 0 0
143 1 1 -0.0531 15.556546848010228 17.544869851349798 21.94533559345586 0 0 0
144 1 1 -0.0531 16.919951913614806 15.499159838251252 21.65717281477919 0 0 0
145 1 6 0.1829 13.358562419838238 12.323660257672636 23.454377301580436 0 0 0
146 1 2 0.0871 11.48672993199392 13.00708648688676 22.52550031975415 0 0 0
147 1 1 -0.043 16.330781144342613 12.730740770141153 24.899007492071263 0 0 0
148 1 2 0.0866 17.09039362764873 16.994782308548945 25.145744296597478 0 0 0
149 1 2 0.0896 16.509365611368253 13.757403138850268 24.606483311776593 0 0 0
150 1 11 -0.2514 18.94686648474428 16.86352906224928 27.91584646819356 0 0 0
151 1 6 0.1829 19.300708071033323 15.931659914117194 27.7535233341095 0 0 0
152 1 10 0.2266 13.19623489119467 14.081378114563986 24.542254397817 0 0 0
153 1 10 0.2266 19.377534907597312 13.626529058633215 25.610411164801107 0 0 0
154 1 1 0.0078 17.424579716507427 11.960145184107803 25.41631694936146 0 0 0
155 1 6 0.1829 19.43731718125613 11.602402131311395 25.664520357911194 0 0 0
156 1 2 0.0839 15.131343546135342 17.42366074055926 26.600115095291745 0 0 0
157 1 11 -0.2514 18.792055711933923 12.373140932350585 25.53459933580113 0 0 0
158 1 1 0.0277 11.720977115733026 14.453687723171543 24.1220416305386 0 0 0
159 1 4 -0.2763 13.776364583046131 14.809421879383349 25.329546591536708 0 0 0
160 1 1 -0.0531 11.00715305717396 15.499486773215189 24.807882018789126 0 0 0
161 1 1 0.0078 15.028648628937422 12.161984192680343 24.701038076218726 0 0 0
162 1 4 -0.2763 18.73277896860582 14.651672960306334 25.48120033877803 0 0 0
163 1 2 0.0896 20.37210338120731 12.074685433252318 23.173263721698316 0 0 0
164 1 11 -0.2514 13.845097288410638 12.86674201404775 24.15475679903503 0 0 0
165 1 2 0.0871 11.542886734834356 16.105942170091932 25.534133036233623 0 0 0
166 1 10 0.2266 18.113077486104146 17.615983800265564 22.368760748755655 0 0 0
167 1 1 0.0277 16.82716778096231 16.88360205018314 21.980537265687214 0 0 0
168 1 1 -0.0531 10.976845412126437 13.745558556413991 23.13039543792603 0 0 0
169 1 2 0.0871 17.891707255563173 15.006939382287772 21.658865873523055 0 0 0
170 1 4 -0.2763 19.19545185867152 17.250982537066538 21.93595462822858 0 0 0
171 1 6 0.1829 10.071988518151938 16.543050703291986 27.05058959593469 0 0 0
172 1 6 0.1829 9.982391828765534 11.460670487122144 22.388316344046714 0 0 0
173 1 1 0.0277 9.609015563403492 15.756288262608061 24.62270779174536 0 0 0
174 1 1 -0.0632 14.924635714644406 10.767573562679193 24.968092831164274 0 0 0
175 1 1 0.0277 9.577219948936815 13.939637516915997 22.912414030480136 0 0 0
176 1 1 -0.0632 17.220084545958425 10.621562859678097 25.773715857287744 0 0 0
177 1 1 -0.0632 20.021972398627987 21.305994351487534 20.989821802726066 0 0 0
178 1 1 -0.0632 11.133936941020893 20.784222839540373 21.27992012770294 0 0 0
179 1 6 0.1829 13.329900712121011 19.508975906223508 21.92019124052556 0 0 0
180 1 11 -0.2514 12.544296870677952 18.88691235860284 22.070610525385057 0 0 0
181 1 1 -0.0632 16.58299463234348 17.957457285318462 25.105831508953045 0 0 0
182 1 1 0.0078 15.209488745792521 20.450009672085844 24.97907904047503 0 0 0
183 1 1 -0.0632 19.41368039928991 19.081575620889634 26.775849624753427 0 0 0
184 1 11 -0.2514 18.091186614913255 18.6212016577734 23.340411737006484 0 0 0
185 1 1 0.0078 19.840789551538958 17.87463093384591 27.3846179080956 0 0 0
186 1 2 0.0871 15.530824609333731 18.616949386463652 22.10861121205993 0 0 0
187 1 1 -0.0801 15.4691334660177 18.19528276886819 25.91702949724898 0 0 0
188 1 1 -0.0632 14.776986380202615 19.414483411801847 25.831530253189424 0 0 0
189 1 2 0.0866 13.881682114990893 19.54599187458923 26.429928255574726 0 0 0
190 1 1 0.0078 17.026584725832798 18.953301339449897 24.224085549273138 0 0 0
191 1 6 0.1829 19.001813274631914 18.958625537556898 23.635717520006718 0 0 0
192 1 11 -0.2514 14.400254011308407 21.651477301675868 24.961834824925248 0 0 0
193 1 2 0.0866 18.402056196227484 19.450365823172547 26.914137757185333 0 0 0
194 1 1 0.0078 11.25230029665265 19.661172341273886 22.140709784784192 0 0 0
195 1 2 0.0896 16.772599746338283 20.995990795485298 23.550469499434143 0 0 0
196 1 1 -0.043 16.383311749567433 20.220721256510174 24.20459936990451 0 0 0
197 1 2 0.0839 19.931227770723385 20.706372615584748 25.42434903836528 0 0 0
198 1 1 -0.0801 20.268594363051264 19.784374136992025 25.8978319654014 0 0 0
199 1 1 -0.0801 20.411145068558 21.351488875061335 22.33140162810704 0 0 0
200 1 2 0.0839 20.15955105335803 20.516701343883394 22.976423885232048 0 0 0
201 1 4 -0.2763 17.26902970195451 24.228890630710445 20.732275252732602 0 0 0
202 1 10 0.2266 14.15336851937712 22.55291783878252 23.91839405944983 0 0 0
203 1 6 0.1829 10.853931938264335 23.8593163349426 27.6607098007484 0 0 0
204 1 2 0.0871 12.189283653788666 23.062380716471075 25.94798518129274 0 0 0
205 1 1 0.0277 13.053976434666312 23.63232751369452 24.037761343751434 0 0 0
206 1 1 -0.0531 12.118017450610825 23.755798236974943 25.11607567902563 0 0 0
207 1 4 -0.2763 14.768989091792653 22.436370329720752 22.87172677674925 0 0 0
208 1 4 -0.2623 19.702391492865885 24.63082861494248 27.538841310979365 0 0 0
209 1 1 -0.0531 12.928297056777833 24.53199827392065 22.945986142290465 0 0 0
210 1 1 0.0277 11.06000026988373 24.725624079041133 25.08433439471907 0 0 0
211 1 2 0.0871 13.632511937198977 24.457894672708637 22.11878446861707 0 0 0
212 1 6 0.1829 13.816186681559799 21.75170099110441 25.77919956862427 0 0 0
213 1 2 0.0896 11.01329378635764 18.593763124519665 27.967193195962825 0 0 0
214 1 10 0.2266 9.932149594019908 24.9056303613175 26.140630252965988 0 0 0
215 1 1 -0.0801 10.029375551137818 21.666619713204046 21.318858808544856 0 0 0
216 1 1 -0.043 10.148442573666621 19.516143593853158 23.07776189042699 0 0 0
217 1 11 -0.2514 10.041580314234906 24.425085430610345 27.457129276169276 0 0 0
218 1 2 0.0896 10.141148169078738 18.66445877958041 23.74370223800843 0 0 0
219 1 10 0.2266 16.67672717398486 25.29395121399595 20.800980641296466 0 0 0
220 1 10 0.2266 11.81919598318268 26.433259194802975 21.648894317243062 0 0 0
221 1 1 -0.043 19.203428619886616 29.334039816298187 20.898335949004682 0 0 0
222 1 2 0.0896 19.18768090917362 30.160628352743974 21.601949831781496 0 0 0
223 1 1 0.0078 19.96842878388899 28.182537123310762 21.1918583621108 0 0 0
224 1 4 -0.2763 12.649488221766909 26.348649382887576 20.757630038466036 0 0 0
225 1 2 0.0872 15.271546842224588 27.588911995220773 21.487805259610113 0 0 0
226 1 11 -0.2514 10.765018421430055 27.36066242814799 21.55974632760802 0 0 0
227 1 2 0.0872 17.259966929654876 25.146822229873713 26.91030585386881 0 0 0
228 1 1 -0.0632 19.748365913854734 31.033479824489156 25.535760723863824 0 0 0
229 1 11 -0.2514 18.618187243210603 31.31154087746734 27.675962758059015 0 0 0
230 1 4 -0.2623 16.095595439234284 30.57402810510629 23.996935899078974 0 0 0
231 1 1 -0.0531 10.993177695645468 25.576157640173758 23.94474690692347 0 0 0
232 1 4 -0.2763 14.444457564933687 26.441764755573832 25.388360559673508 0 0 0
233 1 1 -0.0632 10.349747847448139 30.180998807215428 24.395203163885675 0 0 0
234 1 10 0.2266 17.53274557741265 30.46129865272469 27.830484661720746 0 0 0
235 1 9 0.2886 14.155273409378786 30.576757313642908 22.94186320954787 0 0 0
236 1 1 0.0078 19.801696840388267 31.082270206761944 26.938766676616535 0 0 0
237 1 6 0.1829 13.27234945730262 25.68373301781144 27.4368904717345 0 0 0
238 1 11 -0.2514 14.177181385489497 26.096455351149924 27.620851128062196 0 0 0
239 1 1 -0.0801 10.812614979294182 29.604562587900805 25.589522671362488 0 0 0
240 1 2 0.0866 18.82846990829281 31.282593740341476 25.01286801130146 0 0 0
241 1 1 0.0278 18.600418919475008 27.200834230308253 23.44784531101852 0 0 0
242 1 2 0.0839 11.873697040272456 29.380028659925546 25.68958587717734 0 0 0
243 1 1 0.0277 11.906229704591846 25.506063271889854 22.86964413718107 0 0 0
244 1 2 0.0872 13.722624803445807 31.898865577974274 27.538366422774093 0 0 0
245 1 1 -0.0521 16.166300060159458 27.44196262292494 22.08609318835816 0 0 0
246 1 1 0.0278 16.974425378040756 26.301279939681237 21.87608023097474 0 0 0
247 1 12 0.2765 19.749924918100472 25.83301182301248 27.73740337788144 0 0 0
248 1 1 -0.0521 18.70188747336048 28.168035231127366 27.634297817032547 0 0 0
249 1 1 0.04 18.602914109175572 26.76805367671735 27.43834128047029 0 0 0
250 1 1 -0.0521 17.377519721629263 26.22429861902785 27.004488846717134 0 0 0
251 1 1 0.0278 17.602300328890514 29.01888239610602 27.374430337545554 0 0 0
252 1 1 -0.0531 16.42071507366115 28.450006918816438 26.870169824586334 0 0 0
253 1 1 0.0278 16.278225020726957 27.060338035619548 26.754062984908668 0 0 0
254 1 2 0.0871 15.553428665779146 29.081354796443165 26.700876470416873 0 0 0
255 1 10 0.2266 14.917197656863381 26.484189609761724 26.5094015456636 0 0 0
256 1 2 0.0872 18.09764694196295 29.061325048197492 24.380617473696443 0 0 0
257 1 1 -0.0521 17.7398558961212 28.263523557698424 23.739253606248205 0 0 0
258 1 7 -0.379 14.569452696477768 29.77004736066225 22.58988986664399 0 0 0
259 1 1 -0.0531 18.17339431665597 26.170804195684536 22.596761787572206 0 0 0
260 1 10 0.2266 20.060052949550688 27.467049263832653 23.584945926073708 0 0 0
261 1 12 0.2765 15.72929058363288 29.668698629027393 23.26809737000136 0 0 0
262 1 1 0.04 16.53528807186462 28.41953823212207 23.0356286539759 0 0 0
263 1 2 0.0866 11.047900213762437 30.39110010050331 23.584342355936595 0 0 0
264 1 2 0.0866 10.318438636141531 28.933968117111228 27.576076623953668 0 0 0
265 1 2 0.0871 18.876453663410672 25.3887050364723 22.320119686613417 0 0 0
266 1 1 -0.0632 9.917234870653154 29.343075583933025 26.65335209837645 0 0 0
267 1 6 0.1829 10.073560463879208 27.32596627282402 22.295066551744867 0 0 0
268 1 2 0.0871 10.200674762896583 26.313085123607248 23.888794053709038 0 0 0
269 1 6 0.1829 15.7185659555381 10.79208126005886 29.508818376473528 0 0 0
270 1 2 0.0871 14.65503176583949 12.365853031373351 28.93672021766814 0 0 0
271 1 4 -0.2763 12.489867080479561 15.810735897329641 28.719627875887458 0 0 0
272 1 2 0.0871 18.525421821133975 14.306211885703334 28.75664158402536 0 0 0
273 1 4 -0.2763 18.632336205648954 11.751139404172832 28.859400355985127 0 0 0
274 1 6 0.1829 12.45389889591138 12.73694006525582 29.292176525222615 0 0 0
275 1 10 0.2266 12.941877551261747 14.69719136748783 28.926697827608123 0 0 0
276 1 1 -0.0632 18.563564523565134 15.116895991206443 31.783801387533323 0 0 0
277 1 10 0.2266 17.644244789766795 16.93737982987157 28.451133646177688 0 0 0
278 1 1 -0.0801 17.440384245223864 15.920844876797029 32.05213815649513 0 0 0
279 1 1 -0.0531 15.236711596330627 13.276043799419543 28.925074819869188 0 0 0
280 1 1 -0.0632 16.211613407753717 15.345780051376073 32.46877411285048 0 0 0
281 1 1 -0.0531 17.43583087378357 14.36156148619106 28.780170519060785 0 0 0
282 1 2 0.0866 19.477827197560497 15.59147808246669 31.42250187641113 0 0 0
283 1 1 0.0078 18.481820352472525 13.721267053864699 31.990642141739148 0 0 0
284 1 11 -0.2514 12.001897700590147 13.631768529757355 29.17680690135641 0 0 0
285 1 10 0.2266 17.422197710184275 11.803106570240095 29.021657703479484 0 0 0
286 1 1 0.0277 16.671504619409756 13.162847871609074 28.918589399185237 0 0 0
287 1 11 -0.2514 19.62685399308662 12.83699290046377 31.834512675452828 0 0 0
288 1 1 -0.0531 15.390375253251717 15.681613974392063 28.79608902157957 0 0 0
289 1 1 0.0277 16.820836434160302 15.636232244056684 28.68185113669991 0 0 0
290 1 1 0.0277 14.533346845104896 14.526019113148505 28.89905665929951 0 0 0
291 1 2 0.0871 14.932508010056656 16.66560610534296 28.761089717366026 0 0 0
292 1 4 -0.2763 14.1893609523463 11.799624013951718 31.59486399199262 0 0 0
293 1 6 0.1829 19.56911912142976 12.014718793320336 32.417333171505014 0 0 0
294 1 2 0.0839 17.521605136041543 17.001026424866684 31.905128225256792 0 0 0
295 1 1 0.0078 10.50825210667184 13.467189567841574 29.23940570965374 0 0 0
296 1 1 0.04 10.834817671978008 12.03830627079268 35.14771021307454 0 0 0
297 1 10 0.2266 13.831415360863042 12.37824625127807 32.60510911236025 0 0 0
298 1 1 -0.0521 12.099142987129879 12.321279990584504 34.56002265685166 0 0 0
299 1 1 0.0078 16.036180470818547 13.942523206322551 32.64215326868744 0 0 0
300 1 1 0.0278 12.404085535264077 11.985865596513673 33.223444298093284 0 0 0
301 1 2 0.0872 12.871503523956651 12.785775626854814 35.16832098205557 0 0 0
302 1 1 0.0078 15.031470521064534 17.577514443908356 34.73699267709549 0 0 0
303 1 2 0.0871 20.184383162671207 14.837643929030754 34.40527397683503 0 0 0
304 1 1 -0.043 13.671567306957801 17.18658830357207 34.52680466655578 0 0 0
305 1 11 -0.2514 11.574245547855444 15.775945632604088 35.057565328700406 0 0 0
306 1 11 -0.2514 14.727471284202151 13.396276765296905 33.127723790876075 0 0 0
307 1 4 -0.2763 11.319682777963733 15.823748381017802 32.81592949386107 0 0 0
308 1 1 -0.0531 11.342841785002486 11.22966769386032 32.54477300949646 0 0 0
309 1 6 0.1829 14.368338261174737 13.935627220966312 33.90714060554064 0 0 0
310 1 2 0.0896 17.201083990157095 12.110720054482158 32.62310868816952 0 0 0
311 1 10 0.2266 10.73448012773594 15.704508433953746 33.87787592168498 0 0 0
312 1 1 -0.043 17.22913637264606 13.17328426458268 32.43065314625331 0 0 0
313 1 4 -0.2763 18.708015861707644 11.512984374873025 34.90131034651215 0 0 0
314 1 2 0.0866 15.382283445817547 16.020784760945006 32.64254558562312 0 0 0
315 1 2 0.0896 13.102712006234569 17.756857123268304 33.80685655047003 0 0 0
316 1 1 -0.0521 9.79246385500496 11.437567333155647 34.3897834996911 0 0 0
317 1 1 -0.0632 10.039929438035657 12.12920961897948 29.12580667223093 0 0 0
318 1 2 0.0866 10.751832002844818 11.328553633261798 28.973767385182935 0 0 0
319 1 1 0.0278 9.988317464803046 10.990994721920828 33.064908970691114 0 0 0
320 1 2 0.0871 11.57726995698191 10.827001034737593 31.564307815186137 0 0 0
321 1 11 -0.2514 16.69667625417214 10.630818562152092 29.322877587773043 0 0 0
322 1 1 0.0078 13.031516780029577 16.114646000859956 35.22269864186762 0 0 0
323 1 2 0.0896 9.692608402760014 15.491253490434085 29.53934327754639 0 0 0
324 1 1 -0.0531 13.765002883303394 20.644817310583534 31.864308076281205 0 0 0
325 1 4 -0.2623 18.54081564339408 21.03399585877888 30.231364201066086 0 0 0
326 1 1 0.0278 13.639488720797567 20.981679996920207 30.493181330612362 0 0 0
327 1 11 -0.2514 11.139878542248969 20.111655812446987 30.184292644476876 0 0 0
328 1 1 -0.0521 14.871527911633018 21.373536976847564 29.8534063082779 0 0 0
329 1 4 -0.2763 17.14449901260756 18.02760658812533 28.674368815722698 0 0 0
330 1 1 -0.0521 16.20791931392873 20.798823026545733 31.816875715524937 0 0 0
331 1 1 0.04 16.15091319117851 21.247476524173575 30.485734061468 0 0 0
332 1 6 0.1829 11.260748097304933 19.682412509448845 31.091807043441378 0 0 0
333 1 10 0.2266 12.276592119944539 20.858017707736533 29.70856426218669 0 0 0
334 1 2 0.0872 17.17414723936568 20.676196922577347 32.312502581268014 0 0 0
335 1 4 -0.2763 12.218959590213723 21.3644307367919 28.600768286355134 0 0 0
336 1 2 0.0872 14.859744581015462 21.722991466880558 28.824633839561084 0 0 0
337 1 12 0.2765 17.488556841488798 21.465872699653364 29.79116483814927 0 0 0
338 1 10 0.2266 19.35344688270511 20.99743778503255 34.65237830520504 0 0 0
339 1 4 -0.2763 18.7343362280275 19.953261162360537 34.766764177403495 0 0 0
340 1 1 0.0078 9.912845179216403 19.639567431126913 29.483987017424766 0 0 0
341 1 11 -0.2514 20.39947173813469 21.140353329526196 33.739901578149535 0 0 0
342 1 10 0.2266 15.07621720096382 19.923894524849747 33.895717393848685 0 0 0
343 1 6 0.1829 16.29982291928646 18.37870720891554 33.284315827831534 0 0 0
344 1 1 0.0278 15.023329369149959 20.50237719126913 32.5072947378184 0 0 0
345 1 11 -0.2514 15.608920139940615 18.644690156648444 33.97837834328734 0 0 0
346 1 4 -0.2763 14.323564594362205 20.334601467555416 34.75892442314323 0 0 0
347 1 2 0.0871 12.876458299426412 20.417652461948787 32.438415806383325 0 0 0
348 1 2 0.0866 14.22780270639684 24.12064064728423 29.442230149531703 0 0 0
349 1 2 0.0839 15.088841332060474 24.293569932628472 31.768224449364716 0 0 0
350 1 7 -0.379 17.510028647475895 22.216713655930665 28.67211555160368 0 0 0
351 1 9 0.2886 18.6295467606841 22.999243141708448 31.28413966010541 0 0 0
352 1 7 -0.379 19.21503785965166 23.76194708755229 31.438078844691358 0 0 0
353 1 9 0.2886 18.448530221694476 22.20160519158179 28.385041559654308 0 0 0
354 1 1 -0.0632 12.655076176836925 23.231004799207987 34.864461440283726 0 0 0
355 1 1 -0.0801 11.316754147412007 23.245001152672348 34.43255315358085 0 0 0
356 1 2 0.0866 13.447532528643174 23.5075702437867 34.17026468730628 0 0 0
357 1 2 0.0839 11.115750027044859 23.60471748618103 33.42611796107518 0 0 0
358 1 4 -0.2623 17.656155138385063 24.089633578807607 32.9932135023538 0 0 0
359 1 12 0.2765 18.58533063356033 24.536349976963038 32.34569016183725 0 0 0
360 1 1 -0.043 10.023391346969996 18.80740820965997 28.337152449654234 0 0 0
361 1 1 -0.0632 10.244371970027567 22.823689990913085 35.25800358019112 0 0 0
362 1 1 -0.0801 15.044065341290107 25.179538385504 31.14071391745773 0 0 0
363 1 2 0.0871 19.603270640887718 30.431298110566978 31.17816578691617 0 0 0
364 1 4 -0.2763 18.04723572985303 28.504415560513678 30.68954905727523 0 0 0
365 1 1 -0.0632 15.489042933745283 26.416687835889945 31.641165300952537 0 0 0
366 1 1 -0.0632 14.560146302105537 25.08127561430852 29.823470967288664 0 0 0
367 1 1 -0.0521 20.295069137077938 26.345042242844478 31.83534387797671 0 0 0
368 1 1 0.0277 17.471237777425355 30.743844719683974 31.265033361265377 0 0 0
369 1 1 -0.043 14.906751238479925 27.46235967529961 29.531415704116483 0 0 0
370 1 1 0.0078 14.540453484288761 26.21550570769127 28.99261724890769 0 0 0
371 1 2 0.0896 14.846717244985888 28.352572005107717 28.918426478657963 0 0 0
372 1 2 0.0871 15.40925131252672 31.428442731061924 31.376307854352262 0 0 0
373 1 10 0.2266 17.18493959553631 29.26911705642379 31.088557956401655 0 0 0
374 1 2 0.0872 19.603184111889203 28.58323970049541 28.069473680769978 0 0 0
375 1 4 -0.2763 16.492784502565897 30.90711825954373 28.2884722278585 0 0 0
376 1 1 -0.0531 16.45467069432548 31.720950949364898 31.380143567342166 0 0 0
377 1 1 0.0078 15.406972004661155 27.567142773758405 30.838878881699117 0 0 0
378 1 6 0.1829 15.192792326006861 29.494183415149074 31.582484789900775 0 0 0
379 1 4 -0.2623 11.223159091802032 30.455577985175864 30.06550775625225 0 0 0