LAMMPS data file via write_data, version 29 Oct 2020, timestep = 492

6640 atoms
7130 bonds
11378 angles
19971 dihedrals
0 impropers

14 atom types
18 bond types
23 angle types
42 dihedral types

11.074817 53.925183 xlo xhi
11.074817 53.925183 ylo yhi
11.074817 53.925183 zlo zhi

Masses

 1 12.01
 2 1.008
 3 12.01
 4 16
 5 14.01
 6 1.008
 7 16
 8 14.01
 9 1.008
 10 12.01
 11 14.01
 12 12.01
 13 1.008
 14 16

Pair Coeffs

 1 0.086 3.39967
 2 0.015 2.59964
 3 0.086 3.39967
 4 0.21 2.95992
 5 0.17 3.25
 6 0.0157 1.06908
 7 0.2104 3.06647
 8 0.17 3.25
 9 0 0
 10 0.086 3.39967
 11 0.17 3.25
 12 0.086 3.39967
 13 0.0157 1.06908
 14 0.2104 3.06647

Atoms

 1 1 1 -0.1875 35.3062501107973 7.713876069462 37.13391175994655
 2 1 1 -0.0790 36.12277359877926 8.82034447521817 37.408509148608374
 3 1 1 -0.1875 35.67078150679736 10.1116504271266 37.10588613432086
 4 1 1 0.0896 34.03223335038894 7.89223582509556 36.56573825757716
 5 1 1 -0.2060 33.57137196679107 9.19077313466249 36.27437150217987
 6 1 1 0.0896 34.39954984976688 10.3003221303789 36.537658086026966
 7 1 2 0.1545 35.67150761262306 6.7129975499156 37.348432147909804
 8 1 2 0.1400 37.108606531603606 8.67620284018397 37.841648017793986
 9 1 2 0.1545 36.30955501176689 10.9663708122755 37.30873819682092
 10 1 11 -0.4651 33.982252435573976 11.619144884336496 36.23886026954012
 11 1 11 -0.4651 33.29288662825483 6.7319958442373 36.228258732557855
 12 1 2 0.1700 32.59557926006575 9.33440155422185 35.81820767678233
 13 1 6 0.3240 33.85881004784643 5.99874881732055 35.82117310829475
 14 1 6 0.3240 34.582064629096664 12.139232180575462 35.60932600539653
 15 1 1 -0.1875 25.31666120465045 20.300561096076567 34.0800967853151
 16 1 1 -0.0790 25.54139210187566 20.7281891417089 32.76228748251512
 17 1 1 -0.1875 26.699394689381403 21.457508060982263 32.44136598037171
 18 1 1 0.0896 26.233415806305388 20.63086877439034 35.09126706520284
 19 1 1 -0.2060 27.330650896870104 21.455614088612045 34.781756061574235
 20 1 1 0.0896 27.602137341459226 21.826171484005922 33.457628876744344
 21 1 2 0.1545 24.449141650710963 19.686601494083643 34.30626785531851
 22 1 2 0.1400 24.831188486721157 20.463616357170146 31.98614829836544
 23 1 2 0.1545 26.894401255907297 21.712992099807067 31.405098943426754
 24 1 11 -0.4651 28.853095820102304 22.445531002509053 33.20061301627696
 25 1 11 -0.4651 26.056354412623907 20.09810745479795 36.39706398501591
 26 1 2 0.1700 28.028997933616772 21.74820110036369 35.55907149601896
 27 1 6 0.3240 25.10122337714728 20.104791475650075 36.73404609407544
 28 1 6 0.3240 29.583156530060965 22.20504586905326 33.86027770428241
 29 1 1 -0.1875 1.67330949127448 25.58650724424662 38.13991061777586
 30 1 1 -0.0790 1.20973968591495 24.677773301662768 37.17682089529828
 31 1 1 -0.1875 0.0244119211976965 23.96396961238325 37.39640202476986
 32 1 1 0.0896 0.966643407453937 25.77829893370162 39.34507230867238
 33 1 1 -0.2060 -0.24785651158043 25.088061986074873 39.53618935732405
 34 1 1 0.0896 -0.711826942310886 24.166281096933602 38.577884764555435
 35 1 2 0.1545 2.58683446872939 26.128898160393902 37.934936910763355
 36 1 2 0.1400 1.76813752893894 24.529479031699264 36.25762958220314
 37 1 2 0.1545 -0.328453420940264 23.271704729604494 36.63678632212037
 38 1 11 -0.4651 -1.94216002126273 23.485381667404983 38.774289795786984
 39 1 11 -0.4651 1.45235947079486 26.620353791219 40.39091874084651
 40 1 2 0.1700 -0.813414636638988 25.23847591095069 40.45104081032578
 41 1 6 0.3240 0.746841243127101 26.932252966644448 41.047432344538976
 42 1 6 0.3240 -2.73966241825539 24.075068686695563 38.97876075620473
 43 1 1 -0.1875 9.90719969414772 64.0910809793021 20.569332149162822
 44 1 1 -0.0790 9.042903367003 64.9571081785445 21.250493236835286
 45 1 1 -0.1875 8.13704243190624 64.4496118869177 22.194043700515124
 46 1 1 0.0896 9.87630385183124 62.7118231196518 20.83065655273549
 47 1 1 -0.2060 8.94514304757649 62.200169656369 21.75455767378584
 48 1 1 0.0896 8.06875030977378 63.0607515792059 22.44004348216149
 49 1 2 0.1545 10.6360681948783 64.4992403780317 19.874006307162627
 50 1 2 0.1400 9.09095731720553 66.0232022013261 21.059084833795957
 51 1 2 0.1545 7.50656273852298 65.1506290621472 22.729540618265567
 52 1 11 -0.4651 7.16559008284009 62.4796145129613 23.373611254178048
 53 1 11 -0.4651 10.9119512044038 61.9183576694725 20.282586289624515
 54 1 2 0.1700 8.92820703761473 61.1398663624696 21.981499442243294
 55 1 6 0.3240 11.768238443135925 62.4300984414529 20.1117376665981
 56 1 6 0.3240 7.42228683658884 61.5537386033405 23.693518128086307
 57 1 1 -0.1875 31.873680606991943 24.041709553385203 15.38874976475999
 58 1 1 -0.0790 32.62621822723129 24.46354409741036 14.278893267751995
 59 1 1 -0.1875 33.03334416224684 25.805188839161715 14.169444665588307
 60 1 1 0.0896 31.50774962750662 24.965601572873574 16.380985022073304
 61 1 1 -0.2060 31.863276427592943 26.314678445359775 16.23408960352385
 62 1 1 0.0896 32.673954992042454 26.735332748348902 15.161218065278547
 63 1 2 0.1545 31.586980269068306 23.001362814805095 15.48730775350294
 64 1 2 0.1400 32.913814387316194 23.74587796316888 13.51571297405666
 65 1 2 0.1545 33.653132186033204 26.112836829143365 13.331932751278098
 66 1 11 -0.4651 33.19931135321678 28.05711894291933 15.11550524560131
 67 1 11 -0.4651 30.8364706430085 24.57857910357709 17.56842070649137
 68 1 2 0.1700 31.560414674691007 27.020793239615273 17.001923588751847
 69 1 6 0.3240 30.176507389499296 25.263846526710743 17.915279215955334
 70 1 6 0.3240 33.36373564515347 28.439885143387553 14.192434474319041
 71 1 1 -0.1875 11.40700216380465 0.994696826470708 22.18403970507291
 72 1 1 -0.0790 10.0759048547316 1.04735838152817 21.73711707238577
 73 1 1 -0.1875 9.05604614466439 0.42758852378217 22.48046428588028
 74 1 1 0.0896 11.723758071507392 0.246316168334346 23.326396117304306
 75 1 1 -0.2060 10.7126728694162 -0.424339126508045 24.0267904137306
 76 1 1 0.0896 9.36330804200635 -0.272524849187022 23.66111283940769
 77 1 2 0.1545 12.183473991873518 1.53960141217703 21.657365633992026
 78 1 2 0.1400 9.8259490714488 1.60875731774599 20.841483025329744
 79 1 2 0.1545 8.02496892050451 0.516544467381408 22.150761647717943
 80 1 11 -0.4651 8.31066311955038 -0.832642975740001 24.439046594760168
 81 1 11 -0.4651 13.027431548051487 0.222037348429787 23.866909423957036
 82 1 2 0.1700 10.9867037952103 -1.01651543709524 24.89355383101266
 83 1 6 0.3240 13.12668650802817 0.761009208401269 24.71832205339318
 84 1 6 0.3240 7.53290106720754 -1.18556162566312 23.894105460277782
 85 1 1 -0.1875 55.703159438966 46.540613513818194 -0.193365977153874
 86 1 1 -0.0790 57.0674507831049 46.86016345386589 -0.214976150686418
 87 1 1 -0.1875 57.8940322922135 46.33631288001201 -1.21968557745471
 88 1 1 0.0896 55.1674583290967 45.66096967844957 -1.15362324388148
 89 1 1 -0.2060 55.9921330861338 45.169952209570944 -2.18262931469787
 90 1 1 0.0896 57.354056475424 45.521787384645776 -2.23527929992613
 91 1 2 0.1545 55.0725145302476 46.950283239505225 0.590769479281747
 92 1 2 0.1400 57.4825097317372 47.510220486892116 0.548411128619655
 93 1 2 0.1545 58.9509216831081 46.57922215003726 -1.21180879615765
 94 1 11 -0.4651 58.1477177783735 45.060693599390085 -3.32271577672535
 95 1 11 -0.4651 53.80713273964454 45.258134889337924 -1.08468290600757
 96 1 2 0.1700 55.5735061710879 44.51706821076759 -2.94414696832926
 97 1 6 0.3240 53.2786581331469 45.36559993675599 -1.942093200203
 98 1 6 0.3240 57.8603345808955 44.17811770701134 -3.72781026584718
 99 1 1 -0.1875 -1.01063653480411 72.0620979626319 35.97496263521397
 100 1 1 -0.0790 -0.218543265333849 70.9187555210305 36.16022733299793
 101 1 1 -0.1875 1.04736071956521 70.837655430743 35.56528087539367
 102 1 1 0.0896 -0.552311620876957 73.1328811241188 35.185133094794914
 103 1 1 -0.2060 0.737910564910578 73.0549195524125 34.61358570081249
 104 1 1 0.0896 1.53913217335638 71.9107794014238 34.809225780349465
 105 1 2 0.1545 -1.97649215633933 72.1250283036203 36.46892061629958
 106 1 2 0.1400 -0.5774005086285 70.1016193999007 36.77761518246556
 107 1 2 0.1545 1.66327679365959 69.9583754480222 35.7210626558296
 108 1 11 -0.4651 2.86146056490877 71.8310972267317 34.301807757072424
 109 1 11 -0.4651 -1.34958069874121 74.3172593775213 35.14295862568026
 110 1 2 0.1700 1.1395656031042 73.8934896446622 34.05462047616048
 111 1 6 0.3240 -1.83031051935679 74.508692808349 36.01381179867412
 112 1 6 0.3240 3.07503688751913 71.0136112639746 33.74338555792647
 113 1 1 -0.1875 -4.92214130388046 27.18049428404082 6.76127297797703
 114 1 1 -0.0790 -5.86705144099574 26.959102760184884 5.75036426968575
 115 1 1 -0.1875 -5.48852645083246 26.312836377365986 4.5666930715489
 116 1 1 0.0896 -3.59055857645406 26.76078753392726 6.58758110391995
 117 1 1 -0.2060 -3.18896548280581 26.220035173887595 5.35252036496315
 118 1 1 0.0896 -4.15201305287165 25.92593010235148 4.36630271686379
 119 1 2 0.1545 -5.24364167781809 27.601490253276733 7.70962014428878
 120 1 2 0.1400 -6.90235790782322 27.243703871910405 5.90280711169073
 121 1 2 0.1545 -6.24549935883169 26.08422568618815 3.82560605790143
 122 1 11 -0.4651 -3.81483855185394 25.166126556623638 3.21350886269126
 123 1 11 -0.4651 -2.74181770871725 26.64593348804285 7.72038570338166
 124 1 2 0.1700 -2.16174946956201 25.890749681530107 5.21923183789004
 125 1 6 0.3240 -1.81704304786997 27.05453727006258 7.65484339856224
 126 1 6 0.3240 -3.64791128968482 25.713906667357513 2.3772686357149
 127 1 1 -0.1875 17.332316151184 23.343932433230705 12.1908617430959
 128 1 1 -0.0790 18.49841080377746 23.676522718772635 11.487336484667031
 129 1 1 -0.1875 19.742892438957103 23.614531531548458 12.128907720208685
 130 1 1 0.0896 17.39789925995961 22.952284535151815 13.53948646957081
 131 1 1 -0.2060 18.65212290198763 22.899411157449236 14.183082198516239
 132 1 1 0.0896 19.829626108529265 23.232135652011277 13.478784501796783
 133 1 2 0.1545 16.381559957706056 23.332615487212912 11.66817066812955
 134 1 2 0.1400 18.43866191152491 23.964663317720795 10.4412789900639
 135 1 2 0.1545 20.6419360009651 23.868138563774306 11.575011461038152
 136 1 11 -0.4651 21.121726758899122 23.205509889317792 14.07352925433258
 137 1 11 -0.4651 16.220807131799386 22.413876646113597 14.124631948345804
 138 1 2 0.1700 18.715886542015667 22.546137516696852 15.205749501923037
 139 1 6 0.3240 15.67076420761397 21.853226492632754 13.484987463736175
 140 1 6 0.3240 21.88362348566028 23.107833750780024 13.413483002868807
 141 1 1 -0.1875 7.32607352779781 39.72524911463815 7.74761662505283
 142 1 1 -0.0790 6.06426860047245 39.42615509005999 7.20672984914226
 143 1 1 -0.1875 5.05402723448401 38.89146001727767 8.02381846548427
 144 1 1 0.0896 7.57757176640477 39.49393976950684 9.11397540818795
 145 1 1 -0.2060 6.56873683079255 38.939602835094746 9.91597072190763
 146 1 1 0.0896 5.30352580064168 38.653496821020255 9.3869848105285
 147 1 2 0.1545 8.08231974171018 40.160515121119126 7.10672794742032
 148 1 2 0.1400 5.86788933353537 39.61602187795706 6.15576514514416
 149 1 2 0.1545 4.08658878591731 38.6584187385943 7.59672948051809
 150 1 11 -0.4651 4.32558018452048 38.126460448038095 10.2659551637671
 151 1 11 -0.4651 8.76604104029101 39.88185176965456 9.7815585972299
 152 1 2 0.1700 6.7547792351873 38.77185816115713 10.9744487591313
 153 1 6 0.3240 8.67993042199009 39.876190848695984 10.7908187027178
 154 1 6 0.3240 4.69233346383682 37.5358117950345 11.0027318718104
 155 1 1 -0.1875 5.94183052561788 11.302842914372636 31.681756235191767
 156 1 1 -0.0790 7.05665020321623 10.7703553833432 31.02465245077396
 157 1 1 -0.1875 8.3268547995419 10.902439670648 31.589739273569506
 158 1 1 0.0896 6.07986009441581 11.9676577597247 32.91124118349258
 159 1 1 -0.2060 7.37118389866311 12.114546166602754 33.470485023796286
 160 1 1 0.0896 8.4949873016615 11.564950669421394 32.813321422787155
 161 1 2 0.1545 4.95698053560059 11.160620355292416 31.252838063661514
 162 1 2 0.1400 6.93873451205988 10.2303146431838 30.09495477803829
 163 1 2 0.1545 9.18433833545053 10.4694485588048 31.08542272755506
 164 1 11 -0.4651 9.82094258330177 11.614976373995834 33.317175228577646
 165 1 11 -0.4651 4.87142969506284 12.385687023742445 33.54112190750534
 166 1 2 0.1700 7.50380984115994 12.619751821562465 34.41831379148984
 167 1 6 0.3240 4.03603442723573 12.045737164725452 33.08079795567886
 168 1 6 0.3240 10.5275839493941 11.428481463019939 32.616621603341834
 169 1 1 -0.1875 -2.69057591839736 19.437035624965223 12.300724053027876
 170 1 1 -0.0790 -2.50956318272978 19.16939223531362 10.9332050089821
 171 1 1 -0.1875 -1.54640915435914 18.234925185123878 10.519523751736
 172 1 1 0.0896 -1.916391658588 18.7602714541457 13.25959504663834
 173 1 1 -0.2060 -0.98037752761158 17.796746666639525 12.839292981660243
 174 1 1 0.0896 -0.771891643612705 17.55208196936694 11.473590087802785
 175 1 2 0.1545 -3.42031979521139 20.179211236974453 12.611668064051845
 176 1 2 0.1400 -3.1073727954175 19.69304728466904 10.1939317801277
 177 1 2 0.1545 -1.39753544295714 18.047614626670043 9.46159780879062
 178 1 11 -0.4651 0.241847195727161 16.64464563510151 11.07607789541323
 179 1 11 -0.4651 -2.0465940627171 19.08413988247067 14.63653257019505
 180 1 2 0.1700 -0.367154479036714 17.28394288205111 13.573287511330921
 181 1 6 0.3240 -2.98951168444206 19.03556604538923 15.002167943499662
 182 1 6 0.3240 0.174659802238651 15.707887852446392 11.453960889107803
 183 1 1 -0.1875 2.66255831734355 0.777476399061342 40.71748125933444
 184 1 1 -0.0790 3.26077411196263 1.95518961538627 41.20125607168566
 185 1 1 -0.1875 4.38603534662062 1.88642003688135 42.04196342644696
 186 1 1 0.0896 3.18500743454776 -0.473601265538136 41.08692839015573
 187 1 1 -0.2060 4.28666735264927 -0.533145131454461 41.953345127714925
 188 1 1 0.0896 4.90574295345217 0.635350129460683 42.414420118019066
 189 1 2 0.1545 1.81926575641406 0.838269418479008 40.03538878746173
 190 1 2 0.1400 2.86184266397022 2.92365284519687 40.91448989336256
 191 1 2 0.1545 4.85157529735339 2.80180749027085 42.39278291484244
 192 1 11 -0.4651 6.09948150617343 0.508714144844362 43.164980109851015
 193 1 11 -0.4651 2.75108920797604 -1.66939467466035 40.46492504914444
 194 1 2 0.1700 4.71836363568229 -1.49268292210038 42.208178711389486
 195 1 6 0.3240 3.04662160657072 -1.75011773120114 39.50009087671775
 196 1 6 0.3240 6.95642391833086 0.732177769851582 42.673115696283006
 197 1 1 -0.1875 25.765207077633725 9.09489680606618 42.4018164437944
 198 1 1 -0.0790 25.580012303334673 10.2864998617811 43.11688634289493
 199 1 1 -0.1875 26.130578360307354 10.4228892213775 44.400039430878
 200 1 1 0.0896 26.492373828230715 8.03503479158114 42.9683836698498
 201 1 1 -0.2060 27.031794345027023 8.1649099468417 44.26207453756472
 202 1 1 0.0896 26.859226154265514 9.36782781125976 44.97841883855478
 203 1 2 0.1545 25.334970256523533 8.98962130574098 41.41038895496956
 204 1 2 0.1400 25.015237309108286 11.103688838019375 42.67733338130685
 205 1 2 0.1545 26.002865871815906 11.357069380534933 44.9403944843354
 206 1 11 -0.4651 27.476442025009124 9.6025491788182 46.233414746013636
 207 1 11 -0.4651 26.625727884951026 6.83286004146461 42.23629387259001
 208 1 2 0.1700 27.61017186117666 7.34719931998794 44.6823725625757
 209 1 6 0.3240 25.75381300689011 6.32472022095842 42.14809347101596
 210 1 6 0.3240 27.72000709050056 10.5704723393495 46.40648394173076
 211 1 1 -0.1875 -7.5204126478346 34.50327170482722 63.2317847800086
 212 1 1 -0.0790 -7.39417878290174 35.35375378100627 64.3345363224684
 213 1 1 -0.1875 -6.75606110230424 34.91123180379212 65.5007580088753
 214 1 1 0.0896 -6.99210171118135 33.20261194084395 63.2786055906097
 215 1 1 -0.2060 -6.36988795499819 32.75117833358915 64.4575496671892
 216 1 1 0.0896 -6.22979454323981 33.603434077715434 65.574125595292
 217 1 2 0.1545 -8.01728455739732 34.86131300812605 62.3364938188418
 218 1 2 0.1400 -7.78295844264415 36.36179051483095 64.2782370455796
 219 1 2 0.1545 -6.68345532991144 35.60573579641555 66.3270054189724
 220 1 11 -0.4651 -5.54594432099968 33.09220008868871 66.717475587963
 221 1 11 -0.4651 35.77208504146492 32.376628432587594 19.276385605399163
 222 1 2 0.1700 -5.96792576307656 31.742451713130404 64.4944523842398
 223 1 6 0.3240 35.22137169688395 31.53219416406179 19.368995285114764
 224 1 6 0.3240 -5.27871834951072 32.11908020668502 66.6311648116221
 225 1 1 -0.1875 24.58411398640475 38.48302169250482 -3.88820710340092
 226 1 1 -0.0790 23.93830144288846 38.8621723378748 -5.0777075950607
 227 1 1 -0.1875 65.9254972720386 37.964603088589 37.12074908735367
 228 1 1 0.0896 24.364077279477886 37.206579681139196 -3.34328934949662
 229 1 1 -0.2060 23.495281368749225 36.315463293598235 -3.99628071165574
 230 1 1 0.0896 65.704987713064 36.68458243928366 37.659608258141766
 231 1 2 0.1545 25.259426766683735 39.17491077865962 -3.39488985564622
 232 1 2 0.1400 24.107727742778803 39.85021716647686 -5.49501346763609
 233 1 2 0.1545 65.4293800044109 38.26321478433033 36.20214019155638
 234 1 11 -0.4651 64.8251058998953 35.767557890269025 37.02771334933839
 235 1 11 -0.4651 25.08357420126049 36.77644459295903 -2.19956483926229
 236 1 2 0.1700 23.333152404247794 35.321609731787575 -3.58760970038145
 237 1 6 0.3240 26.09030391717115 36.86662715220764 -2.2597886493894
 238 1 6 0.3240 63.8598697760077 36.06975150740245 36.974168777898676
 239 1 1 -0.1875 31.550292343060743 6.06965556241521 45.643201435450884
 240 1 1 -0.0790 30.718022188162536 5.85079081964417 46.751286152580434
 241 1 1 -0.1875 31.209389418675414 5.17557986730299 47.87971474598476
 242 1 1 0.0896 32.87971946051858 5.61623422163701 45.65949246700327
 243 1 1 -0.2060 33.37745477202114 4.95543788457359 46.800017744557884
 244 1 1 0.0896 32.537804843349285 4.7096565874309 47.90200118682517
 245 1 2 0.1545 31.158295988347493 6.58095831520448 44.7678177582719
 246 1 2 0.1400 29.688245271400472 6.19078560926256 46.72845085160034
 247 1 2 0.1545 30.547050557016085 4.98605419115986 48.718737198314244
 248 1 11 -0.4651 33.01014407642336 3.9148709938363 48.981034753655976
 249 1 11 -0.4651 33.696866479168214 5.83891388955944 44.522064782621506
 250 1 2 0.1700 34.4000557178603 4.58874340609281 46.81343183419864
 251 1 6 0.3240 33.6564524677112 6.77281269025312 44.131851058337496
 252 1 6 0.3240 33.78487234826768 4.31151396558609 49.49987290534038
 253 1 1 -0.1875 18.72187698197531 9.41065133078635 28.04492444054964
 254 1 1 -0.0790 19.295729432235095 8.14442037602172 28.228987867898557
 255 1 1 -0.1875 18.78836744982163 7.28170054678756 29.212596932393026
 256 1 1 0.0896 17.631208271922908 9.80844161343027 28.835611068091712
 257 1 1 -0.2060 17.152894936002088 8.95441200138067 29.848308588090763
 258 1 1 0.0896 17.733117256539636 7.68814521276308 30.045676870692088
 259 1 2 0.1545 19.100419826237506 10.0655761487549 27.264760992323474
 260 1 2 0.1400 20.120955673715084 7.82473507491751 27.598719284889903
 261 1 2 0.1545 19.226745428558047 6.30350462393604 29.331882616966244
 262 1 11 -0.4651 17.270669628541654 6.84218306220185 31.09093683731851
 263 1 11 -0.4651 17.011388401355518 11.0550509534504 28.573090769902503
 264 1 2 0.1700 16.325866535230613 9.26882035137217 30.4789530621857
 265 1 6 0.3240 17.635787536614764 11.813877171922824 28.32913259136443
 266 1 6 0.3240 16.93040035277358 5.92764205630628 30.819537248740918
 267 1 1 -0.2230 25.56571548606434 24.928740374161208 52.89161623065825
 268 1 1 -0.0670 26.457048383099384 25.65156227097493 52.08589871936417
 269 1 1 -0.2150 25.991635996015297 26.721266003706614 51.31080323431317
 270 1 1 0.0996 24.204390431452843 25.2765932118175 52.931057639757
 271 1 1 -0.2160 23.737109053590427 26.33922964198449 52.13691840107547
 272 1 1 0.1686 24.6293575037083 27.07913262971928 51.33975580709009
 273 1 2 0.1300 25.93832981100445 24.10451921875918 53.488043446994396
 274 1 2 0.1310 27.510904928429277 25.392327070573614 52.066279250347044
 275 1 2 0.1340 26.69896430416158 27.26877459988572 50.695685215634924
 276 1 11 -0.8232 24.140492063132605 28.178036536690875 50.58497728765122
 277 1 8 -0.4651 23.334295663968664 24.593563743061438 53.7677974500501
 278 1 2 0.1700 22.685227696926184 26.610796108469852 52.16500716605341
 279 1 6 0.3215 22.407531374230786 24.971467101035536 53.91792873084185
 280 1 6 0.3948 23.21389615012119 28.06394235297679 50.19284510905058
 281 1 1 -0.1875 16.88522688235512 54.9892481437643 17.108482766068065
 282 1 1 -0.0790 17.522554268143196 53.76157623464079 16.872448053167556
 283 1 1 -0.1875 17.04545891399558 52.59814884651977 17.493108210013936
 284 1 1 0.0896 15.76229048223486 55.0629372707988 17.949211419118463
 285 1 1 -0.2060 15.269439976221422 53.888075534371055 18.54582706927703
 286 1 1 0.0896 15.927907751564241 52.66329943797976 18.345400190155132
 287 1 2 0.1545 17.270703069761943 55.8922707797263 16.64884434628612
 288 1 2 0.1400 18.392336913503296 53.71559279105241 16.224206702211468
 289 1 2 0.1545 17.555639402422074 51.652877025020615 17.329504569208517
 290 1 11 -0.4651 15.49216109855594 51.516825259177864 19.052075424876513
 291 1 11 -0.4651 15.238262204530729 56.345544830653 18.249402980774452
 292 1 2 0.1700 14.414324089298656 53.9270076229705 19.21076950264305
 293 1 6 0.3240 15.917488789422833 57.0937650063244 18.18862818026269
 294 1 6 0.3240 14.503483692740783 51.302868039675374 18.999832017017294
 295 1 1 -0.1875 29.305558437162308 27.37666427701689 2.54502739985814
 296 1 1 -0.0790 29.17166655315893 28.2758902891212 1.47601438000745
 297 1 1 -0.1875 29.7016660674707 27.954337464380274 0.217324947842449
 298 1 1 0.0896 29.95059586636735 26.14020881254429 2.35949552711567
 299 1 1 -0.2060 30.46815725037099 25.820417050119254 1.09387393246393
 300 1 1 0.0896 30.371703194541787 26.731941477626332 0.0268911748471794
 301 1 2 0.1545 28.95390384902613 27.667566545703444 3.52527036905054
 302 1 2 0.1400 28.6861328491045 29.233859812007463 1.63220549003954
 303 1 2 0.1545 29.63681810269938 28.672349229003004 -0.593194010233255
 304 1 11 -0.4651 31.054204103742972 26.461094378606287 -1.18998961307481
 305 1 11 -0.4651 30.239080506420144 25.268728059008303 3.4419379516081
 306 1 2 0.1700 31.02175116975331 24.895598709030175 0.959919943281427
 307 1 6 0.3240 31.092541119359566 24.7348908707175 3.33154809393598
 308 1 6 0.3240 30.65672549998409 25.71215868925824 -1.7444877822181
 309 1 1 -0.1875 1.17155663770197 9.29063185412519 32.24833425606133
 310 1 1 -0.0790 1.40682884897413 9.18034305249205 33.62569720076808
 311 1 1 -0.1875 0.739096384785917 8.19820466606588 34.37074170934331
 312 1 1 0.0896 0.255069537821491 8.42866971327948 31.62428290676337
 313 1 1 -0.2060 -0.493339879548046 7.52811416164789 32.399390613761966
 314 1 1 0.0896 -0.169266480588725 7.32393732220518 33.75281060710893
 315 1 2 0.1545 1.73686866360525 10.0086109083045 31.66456180689484
 316 1 2 0.1400 2.13474079487222 9.82449980518501 34.1078081661644
 317 1 2 0.1545 0.987588554782789 8.06089234595922 35.41491312015205
 318 1 11 -0.4651 -0.476317750342879 6.1211632735672 34.4446755855739
 319 1 11 -0.4651 0.18154394129261 8.38076514131605 30.20947144015377
 320 1 2 0.1700 -1.1985891869077 6.88371014889155 31.89226654862394
 321 1 6 0.3240 0.106620277152317 9.28156767886313 29.75343322180018
 322 1 6 0.3240 0.0818745689810498 6.00215462643885 35.281006569268534
 323 1 1 -0.1875 9.49778993423497 20.487951235866035 35.88406265019516
 324 1 1 -0.0790 9.94217502703481 20.676015171589853 34.56751470531303
 325 1 1 -0.1875 11.3136215361068 20.63522387630657 34.280152335292286
 326 1 1 0.0896 10.4131354251285 20.2406362338149 36.923486248031374
 327 1 1 -0.2060 11.791822812668899 20.16832165834674 36.61981253615557
 328 1 1 0.0896 12.241515809770917 20.387065355532712 35.30273049408827
 329 1 2 0.1545 8.43533172162 20.553325670871377 36.10047248941721
 330 1 2 0.1400 9.22640641839422 20.87675094212061 33.77563657682888
 331 1 2 0.1545 11.659186387181837 20.826243245315947 33.26831081726432
 332 1 11 -0.4651 13.62491980058031 20.429300362682582 34.990937435565094
 333 1 11 -0.4651 9.87101005474884 20.132693920217186 38.2371111609059
 334 1 2 0.1700 12.529476401545429 19.989761983691075 37.39337043795646
 335 1 6 0.3240 8.86883734464799 20.272131507967966 38.269370386009456
 336 1 6 0.3240 13.898144387361233 19.961280864845058 34.13549112937725
 337 1 1 -0.1875 7.37554191486089 30.95473516315852 46.81898564699589
 338 1 1 -0.0790 6.41257532073472 31.888001626998552 47.23370881323148
 339 1 1 -0.1875 6.23466178481866 32.153012823859385 48.5993920086738
 340 1 1 0.0896 8.15901410927992 30.28267793200508 47.77465360621207
 341 1 1 -0.2060 8.00032746656246 30.57386527860194 49.14023853184778
 342 1 1 0.0896 7.024732273763 31.498515864867805 49.55872442177007
 343 1 2 0.1545 7.5001986951551 30.7416744157197 45.760700649822226
 344 1 2 0.1400 5.79900005991896 32.40274395796724 46.500842104915165
 345 1 2 0.1545 5.4793868372406 32.865568618221886 48.912401648779394
 346 1 11 -0.4651 6.74022747419995 31.691455335430053 50.93448670299572
 347 1 11 -0.4651 9.08829103940191 29.291036716517162 47.373311209783715
 348 1 2 0.1700 8.5937777214023 30.034959638448665 49.87399994939288
 349 1 6 0.3240 10.0618998782842 29.51597049082944 47.54094630574674
 350 1 6 0.3240 5.75767838711839 31.665472478231997 51.1784022635921
 351 1 1 -0.1875 49.347396941656434 35.249314223232574 53.10782276191087
 352 1 1 -0.0790 48.54503675787401 35.058633565658894 54.2418070636219
 353 1 1 -0.1875 47.174840114847235 34.7908661099849 54.1001784214162
 354 1 1 0.0896 48.78135227470685 35.182771816024704 51.825201967371605
 355 1 1 -0.2060 47.399094925407326 34.95098535293334 51.689437452805024
 356 1 1 0.0896 46.58647369928512 34.73824258550748 52.81909902469335
 357 1 2 0.1545 50.41609725617622 35.40791264129873 53.223759886398405
 358 1 2 0.1400 48.987805837603126 35.09606114865803 55.2326575550736
 359 1 2 0.1545 46.59420511048419 34.62599568298074 54.9981378713767
 360 1 11 -0.4651 45.2067349725834 34.46758344338377 52.584111144895544
 361 1 11 -0.4651 49.64874823531553 35.17315978779453 50.70409407667729
 362 1 2 0.1700 46.95856694805123 34.87224813142057 50.69984382031405
 363 1 6 0.3240 50.515299640898945 34.67181123549645 50.85448586620818
 364 1 6 0.3240 44.93964512853227 34.56036986040266 51.61195161256236
 365 1 1 -0.1875 34.68599070804214 49.10785845740491 51.48207393578272
 366 1 1 -0.0790 34.388422547431 47.84708074506862 52.02498868079911
 367 1 1 -0.1875 33.96294655891127 47.722032888756885 53.35794671593577
 368 1 1 0.0896 34.54908997919594 50.25607227076912 52.280926740211804
 369 1 1 -0.2060 34.12971285400736 50.125662474885075 53.615275669999654
 370 1 1 0.0896 33.83362198170694 48.86405364243442 54.1654263848481
 371 1 2 0.1545 35.00842461503192 49.18605126075121 50.44877346676898
 372 1 2 0.1400 34.479012061715494 46.961946950027574 51.409715610921495
 373 1 2 0.1545 33.71701098249479 46.74075023945295 53.75479949091097
 374 1 11 -0.4651 33.297055999400726 48.74300937973799 55.4765345666882
 375 1 11 -0.4651 -8.05167937172216 8.71927760864627 8.96029473644116
 376 1 2 0.1700 33.9899152414601 51.026176041233875 54.206376631565
 377 1 6 0.3240 -7.80034294831962 9.36637752906265 9.6974620945121
 378 1 6 0.3240 32.528551558439915 48.08924521633918 55.568890126194
 379 1 1 -0.1875 32.324005316102365 28.522754638036602 28.255545823811115
 380 1 1 -0.0790 32.37303608774005 29.608771334287372 27.371427683884168
 381 1 1 -0.1875 32.03887252801682 30.89518380135085 27.818449287553314
 382 1 1 0.0896 31.929836632223996 28.713032514380973 29.591897045244973
 383 1 1 -0.2060 31.598352426018074 30.00820907631548 30.035897543848044
 384 1 1 0.0896 31.641310854579384 31.107617280078465 29.152923599704593
 385 1 2 0.1545 32.56538549217774 27.529123163103392 27.89304703537142
 386 1 2 0.1400 32.67538039347386 29.45451943940317 26.34037433437032
 387 1 2 0.1545 32.12470522158731 31.723392550800636 27.12586306500342
 388 1 11 -0.4651 31.403182368506492 32.413572387931126 29.671423566716705
 389 1 11 -0.4651 31.800403010795627 27.592404278483343 30.45734344786574
 390 1 2 0.1700 31.314689372532715 30.163708283225287 31.072680133017478
 391 1 6 0.3240 30.90016540557042 27.47989766467238 30.907733138958456
 392 1 6 0.3240 31.712418005885215 32.531204032750395 30.628631402666045
 393 1 1 -0.1875 26.709617976869616 36.24868952856856 47.56633552309541
 394 1 1 -0.0790 27.73442156284815 37.18737612176268 47.36990024909369
 395 1 1 -0.1875 28.96921816815497 37.02961689565264 48.01531548778437
 396 1 1 0.0896 26.924090416275178 35.12570250485829 48.39346456614304
 397 1 1 -0.2060 28.159508707976432 34.98520662813454 49.05203031873631
 398 1 1 0.0896 29.181004401902864 35.92951689281202 48.86250602171945
 399 1 2 0.1545 25.76218942243328 36.41077714010099 47.065676853116955
 400 1 2 0.1400 27.569962100289175 38.03780605597377 46.71639075655686
 401 1 2 0.1545 29.759466457641288 37.758152693996365 47.85546580705065
 402 1 11 -0.4651 30.441402390755464 35.75216713515497 49.47948947073834
 403 1 11 -0.4651 25.954738818362976 34.10597528706113 48.59817322744418
 404 1 2 0.1700 28.33653704669265 34.12586192281786 49.69310206087506
 405 1 6 0.3240 26.15921287947669 33.49487882659351 49.379491339616415
 406 1 6 0.3240 30.560303726465694 36.157427502665094 50.40011619140633
 407 1 1 -0.1875 -5.87806559924228 48.556176856144624 3.38717570629017
 408 1 1 -0.0790 -6.018607387942 49.3769565010985 4.51808000361863
 409 1 1 -0.1875 -5.53159242088998 48.9485911850514 5.76073148645346
 410 1 1 0.0896 -5.2279615102366 47.31515162670764 3.48797360637221
 411 1 1 -0.2060 -4.75077165620594 46.88283784120822 4.73655539403603
 412 1 1 0.0896 -4.9284779399405 47.68603667536061 5.87706264841504
 413 1 2 0.1545 -6.27542136060897 48.88240037301858 2.43265661259233
 414 1 2 0.1400 -6.52451082658648 50.333719364362295 4.44056908870878
 415 1 2 0.1545 -5.6821484780932 49.56741691699725 6.64093934908139
 416 1 11 -0.4651 -4.67868736351785 47.15114780816138 7.16119029081457
 417 1 11 -0.4651 -5.13697144134226 46.46596007228196 2.35811401222025