LAMMPS data file via write_data, version 29 Oct 2020, timestep = 28

900 atoms
2 atom types
600 bonds
1 bond types
300 angles
1 angle types

-10.0 10.0 xlo xhi
-10.0 10.0 ylo yhi
-10.0 10.0 zlo zhi

Masses

1 1.008
2 15.9994

Pair Coeffs # lj/cut/coul/long/omp

1 0 0
2 0.15027 3.15066

Bond Coeffs # harmonic/omp

1 0 0.9572

Angle Coeffs # harmonic/omp

1 0 104.52

Atoms # full

8 3 1 0.417 -9.128368969593721 -6.260324562435832 -7.437948815594398 0 0 0
43 15 2 -0.834 -2.168431722884986 -6.010767969506188 -8.405752015005206 0 0 0
44 15 1 0.417 -1.4489835901099197 -6.372409453428704 -7.248067294664819 0 0 0
45 15 1 0.417 -3.0877410865242236 -5.48227962092336 -7.571230863177919 0 0 0
99 33 1 0.417 -2.4181177996037144 -9.584695107283366 -7.192148843573923 0 0 0
107 36 1 0.417 -9.1007014725526 -9.7457087302785 -9.244770530285532 0 0 0
143 48 1 0.417 -1.8038045724592473 -7.349181981242348 -5.255868837052369 0 0 0
238 80 2 -0.834 -7.970634099691952 -5.848898952275545 -8.234841713935884 0 0 0
239 80 1 0.417 -7.380405984773265 -5.242065409721703 -9.417244651103534 0 0 0
240 80 1 0.417 -6.548652409375819 -6.4673419948088515 -8.294933443292862 0 0 0
478 160 2 -0.834 -2.538498988854693 -8.820856298981745 -7.769689654659785 0 0 0
479 160 1 0.417 -2.5455707377400674 -7.422142374796875 -8.232673408612655 0 0 0
480 160 1 0.417 -3.406735438782791 -8.998639921486548 -8.727251339423702 0 0 0
503 168 1 0.417 -0.44556104129441915 -5.727202943340004 -8.503285775807772 0 0 0
553 185 2 -0.834 -5.371650897090664 -6.948986515112058 -8.103275237963972 0 0 0
554 185 1 0.417 -4.846941634439041 -8.219297751835432 -8.203054750198818 0 0 0
555 185 1 0.417 -5.488543352525494 -7.35470821613493 -9.644619753987623 0 0 0
574 192 2 -0.834 -6.518096651844194 -8.727905957501383 -5.38103250016415 0 0 0
580 194 2 -0.834 -4.44458106776577 -5.298075779310603 -6.184129727385394 0 0 0
581 194 1 0.417 -5.09490698587005 -6.057388620852607 -5.158992826897262 0 0 0
582 194 1 0.417 -5.081340982431326 -6.420196340920197 -7.070558667482846 0 0 0
634 212 2 -0.834 -9.358727410438433 -9.724079318854784 -5.4025422571744 0 0 0
635 212 1 0.417 -7.969309244057534 -9.253535745597508 -5.601864480208085 0 0 0
637 213 2 -0.834 -0.730745307206463 -6.674137237154394 -6.308521768873167 0 0 0
745 249 2 -0.834 -4.980561370955956 -9.834556039653542 -8.611746421790958 0 1 0
761 254 1 0.417 -9.400298056613194 -6.119031235758646 -5.040302641423733 0 0 0
762 254 1 0.417 -8.125424802630478 -7.103697642491279 -5.762085645818641 0 0 0
893 298 1 0.417 -9.427716437190869 -5.983201575306978 -9.457950405383016 0 0 0
22 8 2 -0.834 -2.919233112937332 -7.895574009524519 -0.23009181420253824 0 0 0
24 8 1 0.417 -4.691545473580856 -7.7560327731110705 -0.8222255969246488 0 0 0
693 231 1 0.417 -1.8631894612017748 -8.653457824486138 -0.7951765859578842 0 0 0
60 20 1 0.417 -1.3732026245436912 -5.957054655734762 -1.2810119264148774 0 0 0
121 41 2 -0.834 -7.610689033181283 -5.7466453415079535 -1.8291344363413664 0 0 0
122 41 1 0.417 -8.59446907073887 -7.400925712230526 -2.0599276236049446 0 0 0
123 41 1 0.417 -7.59822063985142 -5.931165530055488 -3.213964827324484 0 0 0
142 48 2 -0.834 -2.54222917544677 -7.871916510936996 -4.172003934647162 0 0 0
144 48 1 0.417 -1.597279189575495 -7.106291368784042 -3.4455142302944477 0 0 0
241 81 2 -0.834 -5.111016913125555 -6.778530418386845 -3.985431050819248 0 0 0
242 81 1 0.417 -4.964890038038933 -6.797108170832971 -2.663247207522501 0 0 0
243 81 1 0.417 -3.7298570417755768 -7.291718216968115 -3.9844204629146227 0 0 0
365 122 1 0.417 -2.0697680836135217 -9.258148346580782 -3.754208896318263 0 0 0
385 129 2 -0.834 -8.809536493676632 -7.865792822173744 -1.9914857127968308 0 0 0
386 129 1 0.417 -9.239290087693414 -9.385054378239907 -2.361825029807271 0 0 0
387 129 1 0.417 -8.870080074734146 -8.776277121010622 -0.5828648815573715 0 0 0
451 151 2 -0.834 -5.241793188679392 -7.591034359728016 -1.1076154972620387 0 0 0
452 151 1 0.417 -6.679854967538354 -6.92068771183485 -1.3606122246805545 0 0 0
453 151 1 0.417 -6.071788369076763 -8.758016199546846 -1.5778261265513167 0 0 0
473 158 1 0.417 -4.039235966769356 -5.2908786009289885 -0.27594272567064293 0 0 0
575 192 1 0.417 -5.846493626816415 -8.112193608521974 -4.458407269168802 0 0 0
692 231 1 0.417 -0.5194967980037195 -9.955315108595068 -0.2565951618168222 0 0 0
607 203 2 -0.834 -0.8599585679875245 -6.421942862279415 -2.232883412344085 0 0 0
608 203 1 0.417 -0.2918449771296211 -7.765503363448986 -2.0882831886156388 0 0 0
691 231 2 -0.834 -0.6543665850985356 -9.018588206160798 -1.4749952682788043 0 0 0
760 254 2 -0.834 -8.1233078220822 -6.1399619014713345 -4.923473204796423 0 0 0
11 4 1 0.417 -6.325069067927104 -9.587671894309384 3.3805308384427524 0 0 0
23 8 1 0.417 -3.480358366883884 -7.962914737070365 0.7984774287404643 0 0 0
59 20 1 0.417 -2.0986235945012517 -5.963297595745959 0.4041040530138716 0 0 0
145 49 2 -0.834 -4.756830628288472 -6.095000659573067 2.766761334965151 0 0 0
146 49 1 0.417 -5.10039336656739 -5.232924864886214 3.8585793370144437 0 0 0
147 49 1 0.417 -3.3936481599726065 -5.654193826724742 2.9940007612421544 0 0 0
217 73 2 -0.834 -0.7416656462264167 -9.930573103452089 4.936263030226262 0 0 0
274 92 2 -0.834 -2.0136885704691587 -5.673038499667113 2.8533697451182984 0 0 0
275 92 1 0.417 -0.8177047060380391 -5.91985585111322 3.223457750660945 0 0 0
474 158 1 0.417 -4.2307498236332455 -5.044322395201029 1.4016151677190198 0 0 0
281 94 1 0.417 -8.038639569061285 -7.553045848015669 4.248619956069467 0 0 0
876 292 1 0.417 -9.790112638877432 -9.63979221588477 0.8668497245573322 0 0 0
511 171 2 -0.834 -6.571861386575108 -7.838055218357221 4.111675850901443 0 0 0
512 171 1 0.417 -5.836444240037841 -7.95793724073821 4.95466855745921 0 0 0
513 171 1 0.417 -5.6109740548548 -7.1885151910103104 3.3539992686878097 0 0 0
526 176 2 -0.834 -8.773990237020264 -8.897230962591397 0.6328240235034572 0 0 0
527 176 1 0.417 -7.8970710761853855 -9.172065524844266 1.6526214089481037 0 0 0
528 176 1 0.417 -8.01897670825759 -7.499012386386984 0.882077293889229 0 0 0
604 202 2 -0.834 -2.259225133850426 -8.929160069948244 2.6303021692266495 0 0 0
605 202 1 0.417 -1.2452016599058953 -8.111314281383939 2.719333029716443 0 0 0
606 202 1 0.417 -2.568751549419496 -8.3076559662572 3.817506141199972 0 0 0
712 238 2 -0.834 -7.515393537662731 -6.410153362666277 1.2348541230659809 0 0 0
713 238 1 0.417 -6.2465948187811255 -6.042737803234585 1.2971282029385707 0 0 0
714 238 1 0.417 -7.682834936327223 -5.238900890044183 0.7217068196720013 0 0 0
157 53 2 -0.834 -4.899515071850436 -6.076581522789683 6.691882235289605 0 0 0
158 53 1 0.417 -3.9514345332315237 -5.898767619850015 7.727642124810411 0 0 0
159 53 1 0.417 -5.341379998283333 -7.000339494726487 8.16585274269801 0 0 0
316 106 2 -0.834 -2.9048987537994613 -9.08850977374932 8.135202909093804 0 0 0
317 106 1 0.417 -2.061229313594566 -9.998155493080073 8.193769992495094 0 0 0
318 106 1 0.417 -2.955069788488109 -9.053885587490782 6.91427180407173 0 0 0
332 111 1 0.417 -7.56828872778539 -5.048211482992342 7.969493717702009 0 0 0
441 147 1 0.417 -5.403228617528523 -5.317345179791804 6.22952216089652 0 0 0
515 172 1 0.417 -4.019885689662253 -9.110742109892962 5.151709110607154 0 0 0
532 178 2 -0.834 -9.171732732083724 -9.591508501513351 6.6208427912122305 0 0 0
534 178 1 0.417 -9.229968217378122 -8.010608850158116 5.6874556598777 0 0 0
664 222 2 -0.834 -5.382250105189612 -7.561560280163867 9.017287605753074 0 0 0
665 222 1 0.417 -6.798367325155584 -8.251697017841755 8.910230675568116 0 0 0
666 222 1 0.417 -4.949076724952625 -8.868949221832848 8.923427333661449 0 0 0
667 223 2 -0.834 -3.2625968683660576 -8.168222230694678 5.3352460277509755 0 0 0
668 223 1 0.417 -2.1053581232522873 -6.919516923334194 5.610405323399169 0 0 0
669 223 1 0.417 -3.9469638241074976 -7.0178235274591225 5.930079687520105 0 0 0
703 235 2 -0.834 -6.156106345100588 -9.923195457417359 6.359197847486929 0 0 0
704 235 1 0.417 -7.648224748472572 -9.678942792053913 6.883476441344285 0 0 0
859 287 2 -0.834 -1.5392462178123454 -5.981690960774445 5.705453177678235 0 0 0
860 287 1 0.417 -1.1826522984816756 -5.793114453343325 7.043141043718427 0 0 0
861 287 1 0.417 -0.050272909403397466 -5.849150052206175 5.651578764041147 0 0 0
877 293 2 -0.834 -2.2395269047507056 -6.245291986706401 8.545423855071896 0 0 0
878 293 1 0.417 -2.707443199914159 -6.036898076133353 9.774741214119093 0 0 0
879 293 1 0.417 -2.214832540321469 -7.579705126383956 8.936565284887292 0 0 0
880 294 2 -0.834 -7.8954029931832945 -8.588110330482841 8.941586497723224 0 0 0
881 294 1 0.417 -8.935000680936108 -7.52530641461442 8.80681180668728 0 0 0
882 294 1 0.417 -8.848478660702959 -9.26266429407169 8.213883143581905 0 0 0
889 297 2 -0.834 -8.252977219273463 -5.022619745221336 6.763894324532038 0 0 0
890 297 1 0.417 -8.56703928067392 -6.151880675472973 5.721617422063152 0 0 0
892 298 2 -0.834 -9.664811637689024 -6.425483396225768 9.375070182958174 0 0 0
845 282 1 0.417 -1.549889579276859 -5.1337887634470905 8.562281393568849 0 0 0
280 94 2 -0.834 -9.034744196741197 -7.305701493645874 5.380495298944262 0 0 0
78 26 1 0.417 -0.47533629064602906 -2.7797165802440595 -9.110268062358347 0 0 0
100 34 2 -0.834 -7.705351527139964 -0.06023850175681813 -7.530929466445341 0 0 0
101 34 1 0.417 -8.693070467889209 -1.0091718049532383 -6.784047701122832 0 0 0
102 34 1 0.417 -7.097045172668556 -0.1421176500419877 -6.013494453156354 0 0 0
244 82 2 -0.834 -5.000203498836264 -2.2628950014456133 -8.464876935122614 0 0 0
245 82 1 0.417 -5.325928406256483 -2.4395429574002336 -7.183707507171039 0 0 0
246 82 1 0.417 -4.184509756609433 -1.378321514925164 -7.988041531561361 0 0 0
262 88 2 -0.834 -2.8535927099030496 -0.7752435983943475 -6.967399585934007 0 0 0
263 88 1 0.417 -2.6958614054613284 -1.5219580609383865 -5.96881239368356 0 0 0
264 88 1 0.417 -2.0720030267698246 -1.6966604097446758 -7.66091042367644 0 0 0
337 113 2 -0.834 -5.430845058685108 -2.5401433226509873 -5.539966143825102 0 0 0
338 113 1 0.417 -4.22622772843101 -2.171541070752298 -5.130907178089499 0 0 0
339 113 1 0.417 -5.689883435423127 -1.1099399549424094 -5.267388882941442 0 0 0
352 118 2 -0.834 -0.20793687753556486 -2.5361957351306863 -5.984978927628841 0 0 0
353 118 1 0.417 -0.14822044569854856 -3.573003915937632 -6.76400760600599 0 0 0
354 118 1 0.417 -1.5534785514554619 -3.6136612123950007 -5.388139426825578 0 0 0
412 138 2 -0.834 -9.652331604394229 -2.759349611144324 -9.36503404845562 0 0 0
418 140 2 -0.834 -9.697440330524488 -1.693298395932101 -6.2055996031909535 0 0 0
831 277 1 0.417 -8.546438417588616 -2.002307042596413 -9.400352636212858 0 0 0
420 140 1 0.417 -9.99569221404803 -2.8835872629907446 -6.42031670477538 0 0 0
690 230 1 0.417 -3.4172448495443524 -4.570083216623951 -5.332096181696523 0 0 0
763 255 2 -0.834 -1.6668466147203675 -2.717146383828961 -8.893916833355112 0 0 0
764 255 1 0.417 -2.654367489027296 -3.443337245085139 -9.408073896772773 0 0 0
830 277 1 0.417 -7.236188367618537 -1.012212576574751 -8.555548804551835 0 0 0
790 264 2 -0.834 -4.249653329792973 -4.634194080508613 -9.807457089545299 0 0 0
791 264 1 0.417 -4.801836706913404 -3.638528336480073 -9.085469682604108 0 0 0
477 159 1 0.417 -0.2847823628554241 -1.6336270961447188 -5.129351629170296 0 0 0
688 230 2 -0.834 -2.0685972714399847 -3.9674573111797797 -5.083812323795948 0 0 0
406 136 2 -0.834 -6.321636855703618 -0.015982441735781287 -5.2336964181106325 0 0 0
64 22 2 -0.834 -8.734322355911322 -3.9124281067968907 -0.25017089317507424 0 0 0
65 22 1 0.417 -8.277289159061937 -4.987089493935531 -1.3650136101566623 0 0 0
66 22 1 0.417 -9.695238166116521 -4.959468860456956 -0.0673555604884787 0 0 0
292 98 2 -0.834 -8.253241171066596 -1.2776606972562587 -0.8198671403721178 0 0 0
293 98 1 0.417 -7.125488386157555 -1.887349396353281 -1.2689420331462662 0 0 0
294 98 1 0.417 -8.544653189096127 -2.698362329270047 -0.4895121336636467 0 0 0
343 115 2 -0.834 -7.118648909267465 -3.9005197935006164 -3.75208329258093 0 0 0
344 115 1 0.417 -6.277704874316349 -3.215392716228439 -4.891025621827904 0 0 0
345 115 1 0.417 -7.222204902639831 -4.916637171499583 -4.797965207322397 0 0 0
852 284 1 0.417 -8.262762259103715 -3.7785589196518874 -3.6245346854173834 0 0 0
476 159 1 0.417 -1.0780752660217088 -0.18719364331566948 -4.404277573767177 0 0 0
58 20 2 -0.834 -2.236849429898477 -4.867852889397117 -0.46614403752062833 0 0 0
520 174 2 -0.834 -0.05719261381838782 -2.509778211216725 -1.0746397108682053 0 0 0
521 174 1 0.417 -1.1755272926425633 -2.1975134013371864 -1.5612412489256866 0 0 0
658 220 2 -0.834 -5.687990784144917 -2.5013236995490375 -1.5417462735559193 0 0 0
659 220 1 0.417 -6.314293394599833 -3.5148338471212988 -2.439208061000788 0 0 0
660 220 1 0.417 -5.4603730347813615 -3.676873539988297 -0.7264486866237224 0 0 0
670 224 2 -0.834 -2.995558654880279 -1.1741724157306754 -4.226681945595553 0 0 0
671 224 1 0.417 -2.9129543555745805 -2.0487838881516485 -2.982202323456612 0 0 0
672 224 1 0.417 -3.597018026256367 -0.24313014853235346 -3.4296739300003423 0 0 0
850 284 2 -0.834 -9.644491760375123 -3.025947069259932 -3.5019776023405345 0 0 0
689 230 1 0.417 -2.3618254171490136 -4.284438402606865 -3.8541702023311037 0 0 0
694 232 2 -0.834 -4.187699292239212 -0.3268355828577654 -0.9732980738231418 0 0 0
695 232 1 0.417 -5.0017052982380505 -1.453609661161132 -1.4997289789224835 0 0 0
805 269 2 -0.834 -2.731173136163842 -2.78900510772657 -2.2070824523478283 0 0 0
806 269 1 0.417 -2.2916166319916513 -4.0141087841577425 -1.148331687188128 0 0 0
807 269 1 0.417 -3.7574289448784666 -2.9392577944201683 -1.4555416819366647 0 0 0
419 140 1 0.417 -9.661025403730516 -2.232087804326487 -4.804178711645821 0 0 0
109 37 2 -0.834 -3.8124068584186923 -1.1655094623628452 4.614870497525896 0 0 0
111 37 1 0.417 -2.5434346280579248 -1.0090135973004573 4.264921447985172 0 0 0
199 67 2 -0.834 -1.435740900359594 -3.093013899597425 2.3321114121785893 0 0 0
200 67 1 0.417 -1.20612756113451 -2.8722836313160287 1.1111441678625031 0 0 0
201 67 1 0.417 -2.5755602345864177 -2.1600013950745907 2.0055514312393172 0 0 0
224 75 1 0.417 -8.320210144399896 -2.748665267412515 4.720850802230746 0 0 0
276 92 1 0.417 -1.5492984576255375 -4.240990068164751 2.672570931267593 0 0 0
379 127 2 -0.834 -6.255739924425304 -1.9450391488957488 3.0003057016919454 0 0 0
380 127 1 0.417 -7.015764666811947 -3.140399619334216 3.3549042813414176 0 0 0
381 127 1 0.417 -5.441714665434213 -2.399155618386938 3.898023837431639 0 0 0
460 154 2 -0.834 -0.9273309996088321 -0.33283437104181 4.039260747478436 0 0 0
461 154 1 0.417 -1.5059887813837052 -0.04445233528826462 2.7967388394568666 0 0 0
472 158 2 -0.834 -4.965093242325892 -4.635247617158514 0.2758776281470261 0 0 0
1 1 2 -0.834 -9.98934950656217 -2.812576594417824 2.423347506227052 1 0 0
569 190 1 0.417 -5.029710706207298 -0.22650713383708537 3.6536332595203693 0 0 0
866 289 1 0.417 -2.6376475541823954 -0.24056004532757752 0.6993517044222766 0 0 0
734 245 1 0.417 -7.006403260453207 -1.0811258513131552 2.1959951255661214 0 0 0
735 245 1 0.417 -7.89804511704405 -0.7760136116446453 0.48803332310932335 0 0 0
766 256 2 -0.834 -8.082009763459219 -3.9751868448281273 3.509885447010621 0 0 0
767 256 1 0.417 -9.346321826321475 -3.107240498811287 2.6621089633101143 0 0 0
768 256 1 0.417 -8.445930825760584 -4.802016422237759 2.548094270195661 0 0 0
847 283 2 -0.834 -3.73512855728139 -1.7677456809775511 1.3933877402159667 0 0 0
848 283 1 0.417 -4.887415777612152 -2.2943009741034963 1.6305953034638405 0 0 0
849 283 1 0.417 -4.488241241515892 -0.9156655031640015 0.6385151063346792 0 0 0
439 147 2 -0.834 -5.759585921585236 -4.419131941758715 4.90146889590947 0 0 0
35 12 1 0.417 -9.680953069398495 -3.2353821154284126 8.311432120983334 0 0 0
36 12 1 0.417 -9.568803616539396 -4.756595225840702 7.2477724706266295 0 0 0
81 27 1 0.417 -7.745235940251314 -0.4998257037827182 5.245054178427399 0 0 0
110 37 1 0.417 -2.996264866229769 -2.861751294896675 5.056290262027038 0 0 0
223 75 2 -0.834 -8.197601535523418 -1.5979347260922347 5.453718763599015 0 0 0
225 75 1 0.417 -9.748835228963454 -1.5159954379434468 5.032040856902437 0 0 0
232 78 2 -0.834 -2.1016496169877508 -0.8655057164425577 9.383693979231126 0 0 0
233 78 1 0.417 -1.3953462882791565 -0.2302875395295887 8.200109949173177 0 0 0
331 111 2 -0.834 -6.931294161968037 -4.7902242482341215 9.314116470435096 0 0 0
333 111 1 0.417 -7.031679987732262 -3.635738522098241 8.929232456225469 0 0 0
340 114 2 -0.834 -5.532957047622921 -2.089494285500124 8.278533946572411 0 0 0
341 114 1 0.417 -6.540280205238955 -1.5273398356538257 9.4172098878307 0 0 0
342 114 1 0.417 -5.277171752355828 -0.9524208520088935 8.118685685447735 0 0 0
891 297 1 0.417 -7.345043632037819 -4.708741388131777 5.656600959058245 0 0 0
371 124 1 0.417 -0.3909868062182582 -0.4466032804876801 5.7459942647516185 0 0 0
433 145 2 -0.834 -2.985213843609134 -3.468514835914222 5.106867723670134 0 0 0
434 145 1 0.417 -1.9903973837559894 -4.798814746760615 5.40081066989633 0 0 0
435 145 1 0.417 -2.7764843995806316 -3.4563472950571645 6.809559362338115 0 0 0
844 282 2 -0.834 -0.35088417378361525 -4.312409394254844 8.008502322642224 0 0 0
440 147 1 0.417 -4.576898729508644 -3.8962750620662456 5.380007773539907 0 0 0
572 191 1 0.417 -4.077507749499414 -0.5160307253040499 5.907805873208884 0 0 0
601 201 2 -0.834 -9.298958706544132 -1.7411124680110857 8.10136005688522 0 0 0
602 201 1 0.417 -8.685193756918107 -1.4588373267546604 6.987161584675237 0 0 0
603 201 1 0.417 -8.263795712695163 -1.2975410781514451 8.792101328286291 0 0 0
792 264 1 0.417 -5.493404098259281 -4.746614513542701 9.652405736358668 0 0 0
826 276 2 -0.834 -2.9726428689253814 -3.0805974380203383 7.609159493467711 0 0 0
827 276 1 0.417 -4.25853375695734 -2.646600593831719 8.344396086867057 0 0 0
828 276 1 0.417 -2.5047730750202852 -2.123528406497646 8.302859618037887 0 0 0
765 255 1 0.417 -2.097145894775894 -1.6070411843762888 9.939404237164837 0 0 -1
829 277 2 -0.834 -7.322320542226033 -1.2662052499508938 9.954175456058572 0 0 -1
4 2 2 -0.834 -2.099206960481288 2.173676564380996 -7.043347544551334 0 0 0
5 2 1 0.417 -2.468025298686491 0.9044474632243203 -6.57743599716262 0 0 0
6 2 1 0.417 -3.2718792886388934 2.5683071439220218 -6.360851494550582 0 0 0
93 31 1 0.417 -3.9294307858004425 4.533545377344333 -6.068824537395796 0 0 0
193 65 2 -0.834 -0.3306773432764691 3.9958818416297563 -7.969753651779639 0 0 0
195 65 1 0.417 -1.1993333847064798 3.2688996304386997 -7.2073612806528 0 0 0
226 76 2 -0.834 -4.506387731640878 3.4713411967618297 -6.384873174780048 0 0 0
227 76 1 0.417 -5.944216991116691 3.6847334451608837 -5.808026706462972 0 0 0
228 76 1 0.417 -5.383113101378683 2.539651935912159 -7.383841234842064 0 0 0
295 99 2 -0.834 -1.980262416029471 2.3134994751261035 -9.82909594554659 0 0 0
296 99 1 0.417 -2.348505513128666 2.1882764050115537 -8.460939193947842 0 0 0
427 143 2 -0.834 -5.798689878773242 1.9861575274397705 -8.202267827738032 0 0 0
428 143 1 0.417 -6.6170310881851195 0.8015154512026443 -8.189374941903669 0 0 0
429 143 1 0.417 -5.226129595925988 1.2803917900530242 -9.372493365267292 0 0 0
545 182 1 0.417 -9.608618813122744 3.0023114332388947 -7.164662990289887 0 0 0
546 182 1 0.417 -9.764904724302493 3.3688985968516842 -5.294099662665165 0 0 0
578 193 1 0.417 -8.019728345200583 4.90462669373341 -6.317721176487935 0 0 0
598 200 2 -0.834 -9.051229616588373 2.5253027039079052 -7.793837654348046 0 0 0
599 200 1 0.417 -8.496015678445263 1.0716587343123167 -7.593491048344425 0 0 0
600 200 1 0.417 -9.395161741413109 1.7220432236245176 -9.215531343755723 0 0 0
620 207 1 0.417 -1.1669022584812418 4.569059320120096 -8.737146794114528 0 0 0
698 233 1 0.417 -0.08990012699378104 1.805679281536629 -5.882065821566352 0 0 0
748 250 2 -0.834 -7.136470337023406 4.194337551756715 -9.20260177448614 0 0 0
749 250 1 0.417 -6.396863904694947 2.9955294628614606 -8.691724561529389 0 0 0
750 250 1 0.417 -8.155040285308662 3.3675710412794633 -8.32855268882991 0 0 0
814 272 2 -0.834 -6.909413615771744 4.222237537121125 -5.326145842017554 0 0 0
183 61 1 0.417 -6.533740986654069 4.994684099851201 -8.957094877499301 0 0 0
19 7 2 -0.834 -1.4802091878262924 0.8603332268773048 -1.6278991760414128 0 0 0
20 7 1 0.417 -2.8419815389595455 0.45405501033758167 -1.4287105407513543 0 0 0
21 7 1 0.417 -2.0543374564027723 1.8623950077570885 -2.1876538631591615 0 0 0
115 39 2 -0.834 -4.296546080382612 1.073500956153153 -3.4218553202490583 0 0 0
116 39 1 0.417 -4.974862107682199 2.238373220302341 -2.7307973098681035 0 0 0
117 39 1 0.417 -3.534535508778746 2.1710854810083227 -4.0387602374511085 0 0 0
124 42 2 -0.834 -9.08696294475333 3.367225728234223 -1.338149442110905 0 0 0
125 42 1 0.417 -9.53052431208201 4.381068755246601 -2.22645288243923 0 0 0
126 42 1 0.417 -7.970503582857336 3.5820961109350145 -1.7866032940272014 0 0 0
139 47 2 -0.834 -2.4271696546064256 2.865113093937323 -4.036435307055478 0 0 0
140 47 1 0.417 -2.281722193384447 4.082788837687929 -4.868299364248178 0 0 0
141 47 1 0.417 -1.2203982664290922 3.539383300356666 -3.350432158526159 0 0 0
154 52 2 -0.834 -8.811694789754728 2.723911529797442 -4.509081491781934 0 0 0
155 52 1 0.417 -9.917623301750533 1.6877664292536172 -4.565404012416512 0 0 0
156 52 1 0.417 -8.394029507784374 1.4618489776089918 -3.449996853862591 0 0 0
361 121 2 -0.834 -7.6659433168781135 0.6148135974860491 -3.06838391437987 0 0 0
362 121 1 0.417 -8.12979023481743 0.14790860603261236 -1.6550859531122593 0 0 0
363 121 1 0.417 -6.750546994851695 1.712402031857103 -2.033376036414555 0 0 0
815 272 1 0.417 -8.014305918786526 3.229591250833343 -4.64577755005221 0 0 0
407 136 1 0.417 -5.553644369940418 1.0272812084718377 -4.4470875884538 0 0 0
408 136 1 0.417 -7.099774008157833 0.29669744215497196 -3.6417926164878773 0 0 0
445 149 2 -0.834 -6.118459275076478 2.2774588828820255 -2.005069934014314 0 0 0
446 149 1 0.417 -5.989657201707844 3.995361835900978 -1.542575732967568 0 0 0
447 149 1 0.417 -5.671407860582549 2.2705571476896638 -0.29618391129080723 0 0 0
594 198 1 0.417 -0.5418400364526623 0.7199629184387091 -1.6558151749064138 0 0 0
622 208 2 -0.834 -0.5394793064319678 3.912388425731529 -2.4011681266393814 0 0 0
696 232 1 0.417 -4.9085603008842895 0.36544239984998156 -1.694083582482306 0 0 0
742 248 2 -0.834 -2.8515161749724003 4.6916961515122155 -1.0665874400209268 0 0 0
744 248 1 0.417 -1.607589981456388 4.372476700185917 -1.1003010551568833 0 0 0
799 267 2 -0.834 -6.277530887346869 4.9450122821994835 -1.6409620183462101 0 0 0
28 10 2 -0.834 -9.967966227014202 1.329509527518103 2.8172373940187234 0 0 0
29 10 1 0.417 -8.924247951599014 2.3346870539596525 2.450039619016885 0 0 0
30 10 1 0.417 -8.739669323467842 1.0757041204092057 3.8033415286494208 0 0 0
867 289 1 0.417 -1.44517503648263 0.9463749256402026 0.37381307152651366 0 0 0
733 245 2 -0.834 -6.984234768443569 0.018493926568616224 1.2674555571955188 0 0 0
80 27 1 0.417 -6.6033330498646885 0.8710353565698605 4.261451572423234 0 0 0
118 40 2 -0.834 -5.557222792850855 2.1596361464977307 0.5503139278102235 0 0 0
119 40 1 0.417 -4.870068540631517 2.0633119919769425 1.7192645559058768 0 0 0
120 40 1 0.417 -6.263603189776087 0.7978306119753572 1.3404707862438898 0 0 0
248 83 1 0.417 -0.08515399020182715 2.6668503961451666 4.33983298320309 0 0 0
254 85 1 0.417 -9.924226620325916 0.6334432117178207 1.8761168726442745 0 0 0
286 96 2 -0.834 -3.228867573280664 3.699203778774512 1.5113461282125586 0 0 0
287 96 1 0.417 -2.1866863934836434 4.772604809408898 2.1685843152496336 0 0 0
288 96 1 0.417 -2.5150486991391747 2.895343413247237 2.3764360616837923 0 0 0
865 289 2 -0.834 -1.9300493930882194 0.47702600304947373 1.3947770947989269 0 0 0
397 133 2 -0.834 -8.081686569853757 3.328357473517483 2.257980116548524 0 0 0
398 133 1 0.417 -6.953555118238217 2.933852350715783 1.7107749683510518 0 0 0
399 133 1 0.417 -7.1271198044878465 4.314045768337443 2.9638368087360236 0 0 0
568 190 2 -0.834 -5.716235424209718 0.9227673295963232 3.6047505127901434 0 0 0
570 190 1 0.417 -4.307946474144768 1.4937874534790303 3.806423450760821 0 0 0
625 209 2 -0.834 -3.371490624456051 4.49311740297857 4.782497011368227 0 0 0
720 240 1 0.417 -8.604964231065638 4.699106385495107 1.632164474554938 0 0 0
738 246 1 0.417 -4.538075775711996 4.267777385023867 1.5111691517014672 0 0 0
743 248 1 0.417 -2.9112974048527165 4.06986137024213 0.23603392081313748 0 0 0
808 270 2 -0.834 -3.299565174078371 1.8995763041790192 4.185631779707278 0 0 0
809 270 1 0.417 -2.0460682307595865 1.8901275093547418 4.68815576334162 0 0 0
810 270 1 0.417 -3.268823324279936 3.35165738345151 4.787220030214808 0 0 0
187 63 2 -0.834 -4.431087490797709 1.6101856640226193 9.405777767392582 0 0 0
188 63 1 0.417 -5.3354896315439015 2.5904637713279572 8.541735555036734 0 0 0
189 63 1 0.417 -4.596933516679305 0.8841422386743947 7.7530481700696185 0 0 0
234 78 1 0.417 -2.40643467554844 0.5054725988410733 9.489627823517361 0 0 0
297 99 1 0.417 -3.442113508108143 2.0173527757445666 9.88329544829817 0 0 0
367 123 2 -0.834 -0.3738213764770327 2.46570146157923 5.544892363448762 0 0 0
368 123 1 0.417 -0.9511018149827442 3.1658932152944015 6.568660164882337 0 0 0
369 123 1 0.417 -0.3650331810726958 1.3434536875886633 6.615689768307558 0 0 0
539 180 1 0.417 -0.7455722903455516 2.6810702977278806 9.948854532290865 0 0 0
556 186 2 -0.834 -9.92984729084137 1.3766108917601494 9.693264981531014 0 0 0
557 186 1 0.417 -9.75780182173038 1.453959635818785 8.395067811253472 0 0 0
562 188 2 -0.834 -8.329168845998067 2.704652635896387 7.244832185678886 0 0 0
563 188 1 0.417 -8.37825800336028 1.6320120540501433 5.974623040290304 0 0 0
564 188 1 0.417 -9.30577568282102 3.171289040471301 6.514168861472083 0 0 0
571 191 2 -0.834 -4.528766714840381 0.5071393985116448 7.012024234803321 0 0 0
573 191 1 0.417 -4.68728697513714 1.1058464700247201 5.817386003255053 0 0 0
709 237 2 -0.834 -1.6689354646155878 4.282119733291009 7.422140246252497 0 0 0
710 237 1 0.417 -2.1202138244781525 4.148555987511382 8.577966224806424 0 0 0
711 237 1 0.417 -2.8551937481493286 4.579768853439741 7.09131472171344 0 0 0
811 271 2 -0.834 -6.171093396895833 3.6607133869219024 8.379910880369845 0 0 0
812 271 1 0.417 -7.0889167418999 3.893225505052138 9.597289062700701 0 0 0
813 271 1 0.417 -7.68203201958135 3.042520161888439 7.7471667100957315 0 0 0
617 206 1 0.417 -5.652813915918583 4.875218453368226 7.825090662499544 0 0 0
370 124 2 -0.834 -0.6300394013917747 0.14174088464905082 6.978814729593138 0 0 0
79 27 2 -0.834 -8.024379844888504 1.0697148267862806 5.040776233964559 0 0 0
91 31 2 -0.834 -2.7195578370867426 5.180451571229774 -5.334641026564255 0 0 0
92 31 1 0.417 -3.2263339232049826 6.213952492624024 -6.5833087555187175 0 0 0
97 33 2 -0.834 -2.1908076354483024 8.764667541121392 -6.851618122589335 0 0 0
98 33 1 0.417 -2.590815415468134 9.2536011195727 -5.605727246551741 0 0 0
106 36 2 -0.834 -8.969311027018652 9.837803495868489 -8.177457319360304 0 0 0
864 288 1 0.417 -0.4922765743325372 7.923727368036146 -5.92434333689921 0 0 0
112 38 2 -0.834 -0.19349739025273624 8.072389048854959 -8.436056644585369 0 0 0
113 38 1 0.417 -1.025297218422378 6.902009192386923 -8.336724203947105 0 0 0
114 38 1 0.417 -1.6328119690702014 8.547089469721652 -7.440475680194212 0 0 0
148 50 2 -0.834 -3.3310164164587697 6.578101882027567 -7.642840308285426 0 0 0
149 50 1 0.417 -4.544909243026526 6.547709724464629 -8.532309237185176 0 0 0
150 50 1 0.417 -3.5918107673430937 7.943197548188182 -7.522885811084694 0 0 0
181 61 2 -0.834 -5.412417523035316 6.242226771673351 -9.193576868289123 0 0 0
747 249 1 0.417 -5.543551224945453 9.351287303961579 -9.601570994304966 0 0 0
746 249 1 0.417 -5.977289096724507 9.577437391716849 -7.868517007270383 0 0 0
411 137 1 0.417 -9.241167798352915 6.145735553493028 -8.68129341415419 0 0 0
469 157 2 -0.834 -6.482622344790355 8.079444858001953 -7.157040443507435 0 0 0
470 157 1 0.417 -7.627425433375771 6.988169179575207 -7.096579970619446 0 0 0
471 157 1 0.417 -6.173397713661949 7.080981848764393 -8.151546518776858 0 0 0
577 193 2 -0.834 -8.300633846115769 6.029266195981572 -7.1495105824594205 0 0 0
579 193 1 0.417 -9.49362827163092 6.090613809480791 -6.237783273324307 0 0 0
619 207 2 -0.834 -1.3378550338108124 5.655390971778448 -9.744171612458908 0 0 0
621 207 1 0.417 -2.54971881874779 5.803248507591074 -9.09542785765892 0 0 0
636 212 1 0.417 -9.019481482182044 9.826923161261272 -6.837023629638911 0 0 0
702 234 1 0.417 -6.52427970424232 8.22756712560175 -6.19027400784162 0 0 0
161 54 1 0.417 -0.7569230456020472 8.911756309001776 -9.923928199653188 0 0 1
74 25 1 0.417 -6.203743355955457 9.295485031748163 -0.3892709453310964 0 0 0
172 58 2 -0.834 -8.960866793517827 9.230030592363406 -2.740589527187456 0 0 0
173 58 1 0.417 -9.114225185295075 9.248391169378484 -4.096678042607529 0 0 0
174 58 1 0.417 -8.425828467665808 8.051302347934897 -2.9114423446515683 0 0 0
364 122 2 -0.834 -1.3911724881227365 9.33083757786295 -3.985240236784495 0 0 0
366 122 1 0.417 -2.4772243984660984 9.113985152734378 -2.9238442126309976 0 0 0
382 128 2 -0.834 -3.8392130575468437 6.081020793467071 -3.0084977765254632 0 0 0
383 128 1 0.417 -3.044170638218787 5.513600990681077 -4.164811751123324 0 0 0
384 128 1 0.417 -2.9819174479949795 5.059492067251972 -2.130936440712981 0 0 0
490 164 2 -0.834 -7.653112308625053 6.593038869831721 -3.6524549143295535 0 0 0
491 164 1 0.417 -9.051214267097782 5.998179936556565 -3.1553074238778582 0 0 0
492 164 1 0.417 -7.323028123582374 6.071795969067854 -2.32289100209068 0 0 0
508 170 2 -0.834 -6.258166182639663 9.810458893924984 -1.722324793881903 0 0 0
509 170 1 0.417 -7.090841109627194 9.629164598658715 -2.75068407939711 0 0 0
510 170 1 0.417 -5.351631595622599 8.979781754303385 -2.63802196552675 0 0 0
628 210 2 -0.834 -8.47032644030303 6.8954634936801185 -0.5336576287938837 0 0 0
629 210 1 0.417 -8.961064697943115 8.066703071905133 -0.6040665892907574 0 0 0