Reference SPC/E Water: 300 molecules

900 atoms
600 bonds
300 angles
0 dihedrals
0 impropers

16 atom types
19 bond types
24 angle types
42 dihedral types

-10.000000 10.000000 xlo xhi
-10.000000 10.000000 ylo yhi
-10.000000 10.000000 zlo zhi

Masses # id, mass [g/mol]

 1  12.0100000 # CA (carbon aromatic)
 2   1.0080000 # HA (hydrogen aromatic)
 3  12.0100000 # C  (carbon in carboxyl)
 4  16.0000000 # O  (oxygen)
 5  14.0100000 # N (nitrogen with 1 hydrogen)
 6   1.0080000 # HN (hydrogen on nitrogen)
 7  16.0000000 # OH (protonated carboxyl oxygen)
 8  14.0100000 # NH (nitrogen with 2 hydrogens)
 9   1.0080000 # HO (hydrogen on oxygen)
 10 12.0100000 # LC (crosslinked carbon)
 11 14.0100000 # LN (crosslinked nitrogen)
 12 12.0100000 # CT (terminated carbon on carboxyl group)
 13  1.0080000 # H (free hydrogen for termination)
 14 16.0000000 # OR (reactive oxygen in free hydroxyl)
 15 16.0000000 # OW (oxygen in water)
 16  1.0080000 # HW (hydrogen in water)


Pair Coeffs # id, epsilon [kcal/mol], sigma [Angstroms]

 1  0.0860000 3.3996695 # CA
 2  0.0150000 2.5996425 # HA
 3  0.0860000 3.3996695 # C
 4  0.2100000 2.9599219 # O
 5  0.1700000 3.2499985 # N
 6  0.0157000 1.0690785 # HN
 7  0.2104000 3.0664734 # OH
 8  0.1700000 3.2499985 # NH
 9  0.0000000 0.0000000 # HO
 10 0.0860000 3.3996695 # LC
 11 0.1700000 3.2499985 # LN
 12 0.0860000 3.3996695 # CT
 13 0.0157000 1.0690785 # H
 14 0.2104000 3.0664734 # OR
 15 0.1521 3.157 # OW from Coronell paper (q = -0.83)
 16 0.0150 2.058 # HW from Coronell paper (q = 0.415)


Atoms

 1 1 15 -0.83 9.73922173402 -2.63172670544 2.07122904982
 2 1 16 0.415 9.9803628622 -1.85212959442 1.49323311489
 3 1 16 0.415 9.02746967683 -3.17196548313 1.62228465219
 4 2 15 -0.83 -2.3305634559 2.0332755895 -6.84176017787
 5 2 16 0.415 -2.38591220752 1.06556295806 -6.59585617495
 6 2 16 0.415 -3.0924229723 2.52763893614 -6.42322110112
 7 3 15 -0.83 9.75645176159 -6.64577910909 -7.21977396373
 8 3 16 0.415 -9.3036450027 -6.34719682383 -7.38539560011
 9 3 16 0.415 9.33574491311 -6.05559191772 -6.53080021475
 10 4 15 -0.83 -7.04121054216 9.67587981652 2.98614612402
 11 4 16 0.415 -6.39466288627 -9.66044455509 3.36232532192
 12 4 16 0.415 -6.59739800409 9.1543444867 2.25742715844
 13 5 15 -0.83 4.58551648876 8.84469225601 -6.58740352341
 14 5 16 0.415 4.13140579102 9.07166271572 -5.72585382396
 15 5 16 0.415 5.42560355123 9.38040950455 -6.67261359972
 16 6 15 -0.83 4.54272810785 -7.47776294011 6.26616486137
 17 6 16 0.415 5.44940383134 -7.0560360626 6.27541544072
 18 6 16 0.415 3.91384939403 -6.92814520977 6.81610296134
 19 7 15 -0.83 -1.79138021838 0.898617330798 -1.6818640778
 20 7 16 0.415 -2.6656219771 0.488969085041 -1.42130763084
 21 7 16 0.415 -1.95416761758 1.78811006197 -2.108833566
 22 8 15 -0.83 -3.34074857202 -7.87234461657 -0.25630454037
 23 8 16 0.415 -3.42685912527 -7.92609629671 0.738529983307
 24 8 16 0.415 -4.2510502621 -7.82583900042 -0.667629303418
 25 9 15 -0.83 2.95852381801 -9.30534109821 -0.322902609566
 26 9 16 0.415 3.4603417588 9.86393684648 -0.563899748801
 27 9 16 0.415 3.26639700341 -8.55021802607 -0.901697260227
 28 10 15 -0.83 -9.58691220156 1.42698981452 2.97212210294
 29 10 16 0.415 -9.15946566877 2.15737738215 2.43937125813
 30 10 16 0.415 -8.9288354971 1.06846054384 3.63423373486
 31 11 15 -0.83 9.20213723167 6.29002637835 -5.57608670908
 32 11 16 0.415 8.53169291374 6.82101606362 -6.09430902691
 33 11 16 0.415 9.02735977328 5.31412413279 -5.70672991461
 34 12 15 -0.83 9.59060204596 -4.12090345968 7.86235482788
 35 12 16 0.415 -9.87390484327 -3.42605505969 8.3423890239
 36 12 16 0.415 -9.7928043606 -4.73830429579 7.37385861694
 37 13 15 -0.83 9.68754860212 7.70414912346 2.6721641608
 38 13 16 0.415 -9.69726117391 7.01526138747 2.28879139762
 39 13 16 0.415 -9.92569712516 8.05988926464 3.52296971114
 40 14 15 -0.83 1.69120019281 5.2482109151 -6.0521879501
 41 14 16 0.415 1.86608881989 5.77834168352 -5.22250407265
 42 14 16 0.415 1.91994968145 5.79960603799 -6.85445791083
 43 15 15 -0.83 -2.20733908794 -5.91384084602 -8.17380270127
 44 15 16 0.415 -1.55964550647 -6.33409359716 -7.53828665137
 45 15 16 0.415 -2.97624217061 -5.53117683047 -7.66159541838
 46 16 15 -0.83 1.62328254336 -8.87238902536 -6.06095820355
 47 16 16 0.415 1.38195795726 -9.70297625828 -5.55907445938
 48 16 16 0.415 2.38718821176 -8.41684567826 -5.60387135329
 49 17 15 -0.83 8.97488510298 -1.36496045433 4.54236783932
 50 17 16 0.415 8.01822187588 -1.09814942843 4.65901837023
 51 17 16 0.415 9.12620004405 -1.65906544783 3.59864857947
 52 18 15 -0.83 3.60559415565 -7.61601127908 3.76018676831
 53 18 16 0.415 3.59985750746 -7.7201571662 4.75473225498
 54 18 16 0.415 2.93793107879 -8.24103286808 3.35574390572
 55 19 15 -0.83 2.48572000547 1.9372041425 -7.69098857226
 56 19 16 0.415 2.94272331035 2.81521058423 -7.83330043966
 57 19 16 0.415 1.83109394266 2.02010248167 -6.9395948118
 58 20 15 -0.83 -2.05054398565 -5.25015825722 -0.416677525409
 59 20 16 0.415 -2.16927138448 -5.8387892476 0.38295824288
 60 20 16 0.415 -1.54843797535 -5.74687688125 -1.12460419037
 61 21 15 -0.83 0.205749451609 4.27169851068 1.04228857335
 62 21 16 0.415 0.271149677965 3.62798606718 1.80475634347
 63 21 16 0.415 -0.447251746619 4.99377246763 1.27075878107
 64 22 15 -0.83 -8.80971290014 -4.26668301359 -0.417147193936
 65 22 16 0.415 -8.38732438516 -4.72449447696 -1.19944931359
 66 22 16 0.415 -9.59144191785 -4.80316435124 -0.099204561958
 67 23 15 -0.83 0.988007266412 -8.06878575225 9.38798174908
 68 23 16 0.415 0.759241710289 -8.86184954399 9.95253125316
 69 23 16 0.415 0.901140282173 -7.235157628 9.93343410952
 70 24 15 -0.83 1.43836116072 6.39612501416 -3.46197612435
 71 24 16 0.415 1.00479520824 7.25340580433 -3.7396273654
 72 24 16 0.415 2.42392974049 6.45428184197 -3.62094894574
 73 25 15 -0.83 -6.13650540722 8.71441338458 0.679655936726
 74 25 16 0.415 -6.26001900457 9.2460778048 -0.158244615572
 75 25 16 0.415 -5.30659973131 8.16161475218 0.60435493335
 76 26 15 -0.83 0.79086246954 -3.0461157931 -9.22367283126
 77 26 16 0.415 1.28217843619 -2.25330652486 -8.86303161745
 78 26 16 0.415 -0.193634751322 -2.87616863696 -9.18027713754
 79 27 15 -0.83 -7.69924650808 0.751757054369 4.95918666727
 80 27 16 0.415 -6.86196996286 0.909890689908 4.43577312127
 81 27 16 0.415 -7.73494046569 -0.204345103587 5.25003818428
 82 28 15 -0.83 8.01811256066 6.97725083769 9.26061226607
 83 28 16 0.415 8.27750828429 7.46676405891 8.42809159677
 84 28 16 0.415 7.26902050591 6.34687621829 9.0569239436
 85 29 15 -0.83 -3.04789468941 7.54990878728 7.84857389815
 86 29 16 0.415 -2.762936016 8.09597928465 7.06078866958
 87 29 16 0.415 -2.39052859902 7.66977997013 8.59255018993
 88 30 15 -0.83 8.85073934897 4.02660153932 9.90222571225
 89 30 16 0.415 9.58114813928 4.7094398255 9.88690011396
 90 30 16 0.415 8.00183903859 4.43909479058 9.57174487969
 91 31 15 -0.83 -3.01271123466 5.31057697897 -5.71666452316
 92 31 16 0.415 -3.13032364297 6.11292688222 -6.30181574649
 93 31 16 0.415 -3.72627806337 4.64077131999 -5.92204894362
 94 32 15 -0.83 8.06805041118 3.34192322848 0.279914636541
 95 32 16 0.415 8.92365884852 3.70173894488 -0.0921967072566
 96 32 16 0.415 7.72612098399 3.96036990385 0.987451191465
 97 33 15 -0.83 -2.37974635013 9.12417488564 -6.6912279446
 98 33 16 0.415 -2.57533338315 9.16520727685 -5.71140038049
 99 33 16 0.415 -2.34198248247 -9.94815466244 -7.06271337221
 100 34 15 -0.83 -7.76205072004 -0.24968836307 -7.13102074144
 101 34 16 0.415 -8.53419784943 -0.862165163228 -6.9617252015
 102 34 16 0.415 -7.21362450675 -0.166882842004 -6.29893184339
 103 35 15 -0.83 7.30069764635 -7.40996968414 -0.648695744757
 104 35 16 0.415 7.09401021019 -8.32771094336 -0.309533121739
 105 35 16 0.415 6.56094433124 -6.78657808545 -0.395421293881
 106 36 15 -0.83 -9.14132435501 9.72805607345 -8.35111612331
 107 36 16 0.415 -9.10992658016 -9.75357578882 -9.20569710456
 108 36 16 0.415 -9.91881500264 9.09947387497 -8.37093310114
 109 37 15 -0.83 -3.47234710508 -1.52549730829 4.61591612916
 110 37 16 0.415 -3.13682606623 -2.3820232542 5.00807545454
 111 37 16 0.415 -2.70078391853 -0.99453729156 4.26552818733
 112 38 15 -0.83 -0.620467112785 7.97281825788 -8.27225773471
 113 38 16 0.415 -0.88017346844 7.00886743939 -8.33014925713
 114 38 16 0.415 -1.28519556733 8.46387326553 -7.70922926191
 115 39 15 -0.83 -4.24977717305 1.44826134798 -3.36629278306
 116 39 16 0.415 -4.83879711653 2.07265631347 -2.85327579188
 117 39 16 0.415 -3.71191127751 1.96750905802 -4.03043289933
 118 40 15 -0.83 -5.56119768543 1.8721791619 0.921988262186
 119 40 16 0.415 -4.90246974129 2.13416812458 1.62728201591
 120 40 16 0.415 -6.08647790474 1.0805413218 1.23406232605
 121 41 15 -0.83 -7.74887202636 -6.08531589248 -2.09304900902
 122 41 16 0.415 -8.32382929979 -6.90177623528 -2.03997696029
 123 41 16 0.415 -7.57266842071 -5.86349773765 -3.05208445964
 124 42 15 -0.83 -8.98537592871 3.55728912449 -1.49395860831
 125 42 16 0.415 -9.48756486144 4.1880077394 -2.08556684409
 126 42 16 0.415 -8.02244741556 3.54285651573 -1.76332894514
 127 43 15 -0.83 2.02006700043 0.425247715375 2.79039850816
 128 43 16 0.415 2.10955263328 -0.362896208289 2.1814473795
 129 43 16 0.415 2.55337223605 0.266697550755 3.6213301365
 130 44 15 -0.83 2.49572562173 -1.71517216913 6.04549356897
 131 44 16 0.415 3.27593039906 -2.32165167347 5.89231682058
 132 44 16 0.415 2.13987940507 -1.85667680896 6.96926297039
 133 45 15 -0.83 1.75847067447 6.75908135561 6.0334757709
 134 45 16 0.415 0.759726491032 6.77895048046 6.07946787812
 135 45 16 0.415 2.13315601089 7.48626507623 6.60864073431
 136 46 15 -0.83 0.918674430441 -9.78053201015 -8.61933369321
 137 46 16 0.415 1.15045312577 -9.30684046172 -7.76968967756
 138 46 16 0.415 0.485144079056 9.34410699242 -8.40533706094
 139 47 15 -0.83 -2.20518345585 3.17693986684 -4.05172092566
 140 47 16 0.415 -2.29334160469 3.86387175514 -4.77307570774
 141 47 16 0.415 -1.41554322444 3.39522305744 -3.47829198182
 142 48 15 -0.83 -2.26894456824 -7.71002164514 -4.24456389177
 143 48 16 0.415 -1.94800090507 -7.43530332306 -5.15094405957
 144 48 16 0.415 -1.74707275764 -7.22281748224 -3.54436255147
 145 49 15 -0.83 -4.61319160029 -5.91035226832 2.94923408114
 146 49 16 0.415 -5.04686540557 -5.38021659345 3.67785139966
 147 49 16 0.415 -3.64217960883 -5.67653228851 2.89959609679
 148 50 15 -0.83 -3.55225697235 6.80783112479 -7.76697845365
 149 50 16 0.415 -4.32092908777 6.58149203014 -8.365237422
 150 50 16 0.415 -3.58019521122 7.78190103233 -7.54246281937
 151 51 15 -0.83 9.14226694967 5.63944996413 5.52482135946
 152 51 16 0.415 8.7679801001 4.83778460991 5.99091364011
 153 51 16 0.415 8.78035134924 6.47015068076 5.94785022083
 154 52 15 -0.83 -8.90726352708 2.27546537303 -4.32930396407
 155 52 16 0.415 -9.81845932053 1.91271865116 -4.52459103936
 156 52 16 0.415 -8.47221928893 1.72000864633 -3.62064019639
 157 53 15 -0.83 -4.86462170424 -6.25215007454 7.15427529862
 158 53 16 0.415 -4.03220241353 -5.87162304929 7.55711187531
 159 53 16 0.415 -5.33823442233 -6.81188483003 7.83426647265
 160 54 15 -0.83 -0.934202823754 8.74747297189 8.97962144519
 161 54 16 0.415 -0.838649187961 8.94943238521 9.95434289158
 162 54 16 0.415 -0.0551483712567 8.44017696869 8.61515960088
 163 55 15 -0.83 6.97578349798 -6.499476192 6.93679160405
 164 55 16 0.415 7.62081011215 -6.15923082144 6.25255936655
 165 55 16 0.415 6.88276749727 -5.82671514524 7.67078111185
 166 56 15 -0.83 7.22933978358 -2.97351981334 -5.5138682137
 167 56 16 0.415 7.3883723999 -2.29067085951 -6.22690813768
 168 56 16 0.415 7.2512449 -2.53074596242 -4.61750250551
 169 57 15 -0.83 8.42162811482 -9.24576108978 -4.95919850366
 170 57 16 0.415 8.47757892399 -8.45326375902 -4.35189504764
 171 57 16 0.415 9.27658264531 -9.33516595091 -5.47013834514
 172 58 15 -0.83 -8.93145518351 9.05444855502 -2.9466664271
 173 58 16 0.415 -9.11180725946 9.22697052262 -3.91502033936
 174 58 16 0.415 -8.47353301682 8.1712781417 -2.84509226552
 175 59 15 -0.83 3.88570101043 4.21700889752 -8.08345764651
 176 59 16 0.415 4.7178232936 4.72930012816 -8.2958963456
 177 59 16 0.415 3.44526949608 4.61540879839 -7.27890957451
 178 60 15 -0.83 3.39744268747 -6.76235906784 -1.68039705551
 179 60 16 0.415 4.104442211 -6.73848475627 -2.38720798565
 180 60 16 0.415 2.98406426861 -5.8561297905 -1.59170218699
 181 61 15 -0.83 -5.73166963131 5.9371185862 -9.36372763638
 182 61 16 0.415 -6.1210096473 6.12695618298 9.73495330868
 183 61 16 0.415 -6.28178483318 5.24063510374 -8.90298473266
 184 62 15 -0.83 6.54539584795 -8.47732736631 2.80895870606
 185 62 16 0.415 5.83883910815 -7.78473339454 2.66373073453
 186 62 16 0.415 6.16712633858 -9.38381390221 2.62135716419
 187 63 15 -0.83 -4.62410957919 1.62855659941 8.91645272436
 188 63 16 0.415 -5.15902314413 2.43739403099 8.6722202791
 189 63 16 0.415 -4.606609151 0.994582610292 8.14329639079
 190 64 15 -0.83 -3.84694084831 7.3214622885 0.34531325109
 191 64 16 0.415 -3.10991161547 7.83296364542 0.787075938285
 192 64 16 0.415 -3.74697928365 6.3479990829 0.551170174554
 193 65 15 -0.83 -0.301285777518 3.92611510778 -7.65130245451
 194 65 16 0.415 0.314992779446 4.09144441421 -6.88132390892
 195 65 16 0.415 -1.09529982108 3.40580253793 -7.33695149097
 196 66 15 -0.83 5.5421876572 5.30264891785 5.91755167819
 197 66 16 0.415 5.48984875738 6.17029565008 5.42313304219
 198 66 16 0.415 5.37089020685 4.54754580142 5.28471957797
 199 67 15 -0.83 -1.60580171881 -2.87722466771 2.12419815152
 200 67 16 0.415 -1.19689486152 -2.91156466985 1.21226835909
 201 67 16 0.415 -2.38118452522 -2.2457612552 2.11824313833
 202 68 15 -0.83 5.62665527988 6.22732714754 -2.12193602462
 203 68 16 0.415 5.06743283721 6.10868097427 -2.94241962908
 204 68 16 0.415 6.34252402616 6.90215791084 -2.3011994593
 205 69 15 -0.83 6.41481189807 -5.87210279562 -6.87635294876
 206 69 16 0.415 5.90702623913 -5.44737826766 -6.1268445766
 207 69 16 0.415 5.81108226747 -6.49017147709 -7.37984241052
 208 70 15 -0.83 8.39014120482 -4.93267128049 4.65199720522
 209 70 16 0.415 8.32283303713 -5.48464727814 3.82085816235
 210 70 16 0.415 9.33507393088 -4.62945621075 4.77513438358
 211 71 15 -0.83 5.59377562299 8.97813971563 1.90938530278
 212 71 16 0.415 6.0142436699 8.07917632604 1.78661948631
 213 71 16 0.415 4.64434594411 8.86485247328 2.20221509224
 214 72 15 -0.83 7.05380777031 8.41626081865 -4.04301553806
 215 72 16 0.415 6.93359716125 7.78275316623 -4.80735673399
 216 72 16 0.415 7.56639453408 9.21750946295 -4.35165030538
 217 73 15 -0.83 -0.250759931121 -9.58211096191 4.96535842399
 218 73 16 0.415 0.155405515187 -9.63877260336 5.87739959006
 219 73 16 0.415 0.0536014935022 -8.74190878407 4.51655510007
 220 74 15 -0.83 2.96274853257 -0.589665616907 0.178178928396
 221 74 16 0.415 2.8630743493 -1.43018364083 0.710714850802
 222 74 16 0.415 2.11988772076 -0.415826243333 -0.331100488133
 223 75 15 -0.83 -8.45570649748 -1.76711674426 5.24661136627
 224 75 16 0.415 -8.28387194114 -2.64540018027 4.80041511879
 225 75 16 0.415 -9.41901308596 -1.52131369412 5.13880933877
 226 76 15 -0.83 -4.91543818997 3.3512843533 -6.49464858313
 227 76 16 0.415 -5.6826210112 3.60250312616 -5.90446247098
 228 76 16 0.415 -5.23366348167 2.72532529396 -7.20662324544
 229 77 15 -0.83 -2.08816635545 8.68448973429 1.87614009855
 230 77 16 0.415 -2.07415078219 9.54263800305 2.38935069131
 231 77 16 0.415 -1.27695423912 8.63107644963 1.29383268545
 232 78 15 -0.83 -1.9928712101 -0.488307445983 9.24367987633
 233 78 16 0.415 -1.5124960986 -0.361779656851 8.37579136343
 234 78 16 0.415 -2.43409662301 0.36912017541 9.50851569165
 235 79 15 -0.83 5.29605678098 8.18551183777 4.8383436472
 236 79 16 0.415 6.13173344047 8.6152300101 4.49631029626
 237 79 16 0.415 4.85160946978 8.79598612923 5.49392562303
 238 80 15 -0.83 -7.61263767627 -5.85663162995 -8.42704604451
 239 80 16 0.415 -7.49762316113 -5.28160562198 -9.23705638485
 240 80 16 0.415 -6.7829386658 -6.39513381218 -8.28002580181
 241 81 15 -0.83 -4.90280262518 -6.87911714962 -3.78686161997
 242 81 16 0.415 -4.98766596642 -6.73067429513 -2.80158859575
 243 81 16 0.415 -3.97049783135 -7.17063033466 -4.00093598638
 244 82 15 -0.83 -4.94974807366 -2.15108315744 -8.24401740394
 245 82 16 0.415 -5.33520609377 -2.43020786407 -7.36452237105
 246 82 16 0.415 -4.27052542203 -1.43200554649 -8.09710253426
 247 83 15 -0.83 0.232350201059 2.61892162679 3.13299335191
 248 83 16 0.415 -0.0775201376408 2.76888723712 4.07187070754
 249 83 16 0.415 0.685932066073 1.72995913211 3.06967530722
 250 84 15 -0.83 1.25273683217 -9.78248344898 7.15561149587
 251 84 16 0.415 0.948014728108 -9.0879512624 7.80735491249
 252 84 16 0.415 1.41082115204 9.35532720708 7.63690026887
 253 85 15 -0.83 9.67905189812 -0.174794905883 0.928659078672
 254 85 16 0.415 -9.98139282527 0.404623946596 1.66958823016
 255 85 16 0.415 9.82019475595 0.287009064752 0.0529788936803
 256 86 15 -0.83 6.54186618521 1.2309008077 -6.50704464826
 257 86 16 0.415 6.97914627331 1.94575829928 -7.0527230254
 258 86 16 0.415 5.72896624367 1.60354521142 -6.0594624397
 259 87 15 -0.83 1.74870378514 8.16942888969 8.77827819924
 260 87 16 0.415 2.43301074062 8.42071130194 9.4628080671
 261 87 16 0.415 1.62156644498 7.17755299417 8.78255659004
 262 88 15 -0.83 -2.71206099845 -1.00838413882 -6.93366582523
 263 88 16 0.415 -2.76078094757 -1.48134845229 -6.05393227196
 264 88 16 0.415 -2.17372341874 -1.55389678254 -7.57601199811
 265 89 15 -0.83 7.89934900498 7.93811965003 6.80264448646
 266 89 16 0.415 6.99466427143 7.89769094926 7.2268037172
 267 89 16 0.415 7.91245448147 8.66297233203 6.1138652505
 268 90 15 -0.83 1.78134563607 2.79068084524 -0.882162740673
 269 90 16 0.415 1.31625753382 3.1975054147 -0.0959141624101
 270 90 16 0.415 2.72085988411 3.13036069452 -0.926101080657
 271 91 15 -0.83 4.88964627836 -2.79034614532 -0.170196966107
 272 91 16 0.415 5.58958731 -2.09861228625 0.00752984795979
 273 91 16 0.415 4.27995360802 -2.85817653082 0.619533295775
 274 92 15 -0.83 -1.75239625704 -5.48652222256 2.89382860259
 275 92 16 0.415 -0.896188108181 -5.90251073059 3.20019630163
 276 92 16 0.415 -1.60852581883 -4.51081219643 2.72862799147
 277 93 15 -0.83 4.03785077496 6.27814047649 -4.47936045159
 278 93 16 0.415 4.37286861526 7.18524108906 -4.73417710208
 279 93 16 0.415 4.61587722492 5.57899761865 -4.90017476629
 280 94 15 -0.83 -9.12165188103 -7.29688857392 4.80679933559
 281 94 16 0.415 -8.22793124166 -7.50752373501 4.41069802573
 282 94 16 0.415 -9.81331555853 -7.29108660635 4.08460289804
 283 95 15 -0.83 7.52852274962 -3.90600382862 -8.32837884202
 284 95 16 0.415 7.27850987176 -4.61607554645 -7.67012986447
 285 95 16 0.415 7.07469266021 -3.04935885611 -8.0830267664
 286 96 15 -0.83 -2.93737998952 3.74883911544 1.78457884896
 287 96 16 0.415 -2.40270265259 4.55624262424 2.03401765779
 288 96 16 0.415 -2.58518667379 2.95141618155 2.27455490231
 289 97 15 -0.83 -6.37107651049 5.35304722052 3.81391235746
 290 97 16 0.415 -6.71082551623 4.95272934222 4.66498004537
 291 97 16 0.415 -5.88261875979 6.20179386612 4.01649112576
 292 98 15 -0.83 -8.18041471492 -1.57030014529 -0.894283280926
 293 98 16 0.415 -7.25508814225 -1.74435029549 -1.23114716905
 294 98 16 0.415 -8.55661207435 -2.41063564443 -0.504011842521
 295 99 15 -0.83 -2.26846649095 2.22417017888 -9.66642450602
 296 99 16 0.415 -2.30501732902 2.23026329677 -8.66711128678
 297 99 16 0.415 -3.18412490068 2.05804162609 9.9675550292
 298 100 15 -0.83 4.23349417919 4.09282178322 -0.856081745629
 299 100 16 0.415 4.29167891949 4.46750830577 0.069242276442
 300 100 16 0.415 4.51652945428 4.78886831112 -1.51593799063
 301 101 15 -0.83 8.06851820803 -7.92596720497 -8.92204475132
 302 101 16 0.415 8.54792680751 -7.32067459569 -8.28660140066
 303 101 16 0.415 8.67872185799 -8.16797783054 -9.67642022989
 304 102 15 -0.83 8.07624023913 4.86858994359 2.73106249864
 305 102 16 0.415 8.89660952581 4.99281895471 2.17288565724
 306 102 16 0.415 8.20847691631 5.30689080341 3.62011020123
 307 103 15 -0.83 8.6640594286 8.16635728398 -8.22978424004
 308 103 16 0.415 8.32944494117 7.9191608651 -9.13913954756
 309 103 16 0.415 7.91317376318 8.11038443735 -7.57172819538
 310 104 15 -0.83 8.53744479834 3.09858523541 6.34699244995
 311 104 16 0.415 7.82075396396 3.01400976799 7.0392360763
 312 104 16 0.415 8.21358689708 2.71288361912 5.48307675789
 313 105 15 -0.83 8.34267374893 -6.97835531903 -3.13673371607
 314 105 16 0.415 8.42408003693 -7.52580540045 -2.30386432377
 315 105 16 0.415 8.01444930358 -6.06307148111 -2.90322952016
 316 106 15 -0.83 -2.83664071081 -9.17835505191 7.99810038288
 317 106 16 0.415 -2.15288288928 -9.88653008503 8.17406448142
 318 106 16 0.415 -2.97799167664 -9.08914717973 7.01216840754
 319 107 15 -0.83 3.37600264297 7.62474865595 2.85023980817
 320 107 16 0.415 4.09215169745 7.74356061523 3.5380001226
 321 107 16 0.415 2.58525128862 7.17595217763 3.26652578756
 322 108 15 -0.83 1.2541413572 -3.05035914588 -3.49543976753
 323 108 16 0.415 1.06069389027 -2.68378425912 -4.40549522185
 324 108 16 0.415 0.755453699378 -2.52025889186 -2.80965238019
 325 109 15 -0.83 4.05013594929 -3.99591223129 5.92106559493
 326 109 16 0.415 4.2197720237 -4.59392035578 6.70439814584
 327 109 16 0.415 4.89689375561 -3.87778457357 5.40236811671
 328 110 15 -0.83 6.72430637766 6.85182526412 -6.18379231259
 329 110 16 0.415 6.17895787835 7.28499502227 -6.90139873322
 330 110 16 0.415 6.45989633587 5.89121830792 -6.09822593191
 331 111 15 -0.83 -7.05896914104 -4.72446617396 9.0211639458
 332 111 16 0.415 -7.48688902246 -5.04654628121 8.17668246015
 333 111 16 0.415 -7.03036600642 -3.72487586403 9.02012809522
 334 112 15 -0.83 -0.907000646552 6.29558983176 5.37177611675
 335 112 16 0.415 -1.32874654711 7.20162416011 5.33667353542
 336 112 16 0.415 -1.30507142986 5.77158439419 6.12474222015
 337 113 15 -0.83 -5.27607337545 -2.28038306841 -5.44742240662
 338 113 16 0.415 -4.30399367367 -2.26442737485 -5.21331459124
 339 113 16 0.415 -5.65995337697 -1.36330378891 -5.33971103514
 340 114 15 -0.83 -5.73141461841 -1.87281856759 8.42218869614
 341 114 16 0.415 -6.35151419496 -1.65580174566 9.1760986471
 342 114 16 0.415 -5.25397031448 -1.04281131111 8.13385747889
 343 115 15 -0.83 -6.97227029026 -3.95108360597 -4.1085660165
 344 115 16 0.415 -6.46093561768 -3.3157138381 -4.68722144999
 345 115 16 0.415 -7.20084073132 -4.7704853677 -4.63424301461
 346 116 15 -0.83 7.69488028181 3.71043995909 -3.65603484473
 347 116 16 0.415 8.41627988471 4.34407425444 -3.3765886197
 348 116 16 0.415 7.8198272078 2.83567967271 -3.18786531663
 349 117 15 -0.83 6.19997283888 -3.57891396216 4.57554477378
 350 117 16 0.415 6.20761135236 -2.71561560039 5.08018087204
 351 117 16 0.415 7.01288218106 -4.11082935415 4.81270382835
 352 118 15 -0.83 -0.451217868935 -2.88197800158 -6.03556453145
 353 118 16 0.415 -0.127463155871 -3.50924912689 -6.7438821305
 354 118 16 0.415 -1.21372688173 -3.30090076982 -5.54252932007
 355 119 15 -0.83 4.3459085423 -5.15721090823 3.16305778169
 356 119 16 0.415 4.17280007752 -6.03423536125 3.61123360459
 357 119 16 0.415 4.9974768537 -4.62801914246 3.70657853624
 358 120 15 -0.83 5.08669049563 6.8118889095 -8.3746133584
 359 120 16 0.415 4.44943510336 6.44875367192 -9.05434739775
 360 120 16 0.415 4.6717286268 7.59685794037 -7.91458045959
 361 121 15 -0.83 -7.62101458911 0.746635802635 -2.57081696036
 362 121 16 0.415 -8.03178288486 0.237284314982 -1.81462223066
 363 121 16 0.415 -6.98927338139 1.43128035142 -2.20727206865
 364 122 15 -0.83 -1.67418021357 9.60479639169 -3.6874545991
 365 122 16 0.415 -1.97666084349 -9.44736267626 -3.78796845912
 366 122 16 0.415 -2.27722480035 9.12855730335 -3.04750650973
 367 123 15 -0.83 -0.4024879259 2.34946955252 5.91354927819
 368 123 16 0.415 -0.882827254925 3.07021800276 6.41334503693
 369 123 16 0.415 -0.30204469688 1.54653194691 6.50108851879
 370 124 15 -0.83 -0.421550105344 -0.201241250709 6.86504772042
 371 124 16 0.415 -0.406222853478 -0.378733468024 5.88104488092
 372 124 16 0.415 0.122488134353 -0.894750631875 7.33734755313
 373 125 15 -0.83 -8.25288458505 6.27881269428 5.79954121225
 374 125 16 0.415 -9.19852063423 6.02508022045 5.59609024959
 375 125 16 0.415 -8.0628679614 7.18575004566 5.42356471909
 376 126 15 -0.83 7.6790792383 3.16769414568 -7.87901188269
 377 126 16 0.415 8.10269278948 3.35528669621 -8.76521761177
 378 126 16 0.415 8.33294909605 3.3649876204 -7.14858084969
 379 127 15 -0.83 -6.275938765 -2.16296327647 3.22517825731
 380 127 16 0.415 -6.90542510007 -2.93848066806 3.27334182557
 381 127 16 0.415 -5.48038276867 -2.34299147217 3.80369403536
 382 128 15 -0.83 -3.57989257924 5.71567364016 -3.06582844326
 383 128 16 0.415 -3.12316040325 5.58727935611 -3.94611852457
 384 128 16 0.415 -3.09053142307 5.20512009006 -2.35882014677
 385 129 15 -0.83 -8.94218611609 -8.37732908198 -1.7855734843
 386 129 16 0.415 -9.23359479358 -9.15369201593 -2.3444487633
 387 129 16 0.415 -8.86889382842 -8.66329411518 -0.830140472334
 388 130 15 -0.83 6.75066625094 -9.67215070706 -7.06023242713
 389 130 16 0.415 7.05521243496 -8.9893988371 -7.72438715748
 390 130 16 0.415 7.28480815132 -9.58102334848 -6.21976337072
 391 131 15 -0.83 3.99809609701 -4.06390561973 -2.51038324957
 392 131 16 0.415 4.32935115695 -3.75975814999 -1.61720667021
 393 131 16 0.415 3.00966853619 -3.92244363379 -2.56515060788
 394 132 15 -0.83 1.39790871066 5.95276792398 3.46007333703
 395 132 16 0.415 1.15404115054 4.99305307339 3.32051682987
 396 132 16 0.415 1.06852404069 6.25362727357 4.35505344348
 397 133 15 -0.83 -7.75499696453 3.41836837141 2.34748809635
 398 133 16 0.415 -7.08969151866 2.95632993414 1.76106747412
 399 133 16 0.415 -7.30896513714 4.17476475959 2.82594406393
 400 134 15 -0.83 5.4715448804 -9.98461020597 -2.56369318931
 401 134 16 0.415 5.84371490813 9.79400568004 -1.66231727187
 402 134 16 0.415 5.92635514113 9.4578779874 -3.25819172222
 403 135 15 -0.83 6.94420086363 9.90261044371 -0.11013932973
 404 135 16 0.415 6.37610966339 9.74036596382 0.696674847733
 405 135 16 0.415 7.86499921714 9.54875793217 0.0539301440869
 406 136 15 -0.83 -6.33033641583 0.274293179167 -4.77607272832
 407 136 16 0.415 -5.63735339889 0.970849712601 -4.59010624221
 408 136 16 0.415 -6.91394283743 0.161687083191 -3.97188157454
 409 137 15 -0.83 -9.48532773469 6.18693994779 -9.81098667682
 410 137 16 0.415 9.7190341547 6.78031810499 -9.932897954
 411 137 16 0.415 -9.27725210535 6.104459507 -8.83635776828
 412 138 15 -0.83 -9.92410208673 -2.7940338672 -9.36006872919
 413 138 16 0.415 9.42865588832 -3.49282492071 -9.05548897827
 414 138 16 0.415 9.57311602935 -1.99347117425 -9.68612049172
 415 139 15 -0.83 3.53625642706 -5.12581756002 -9.67225918205
 416 139 16 0.415 4.06032375637 -4.3666914546 9.94163074241
 417 139 16 0.415 3.20027043786 -4.87165745265 -8.76533247339
 418 140 15 -0.83 -9.76998146535 -1.9359013038 -5.98204375086
 419 140 16 0.415 -9.66795905859 -2.10202486578 -5.00123062356
 420 140 16 0.415 -9.97470782985 -2.79750121598 -6.44651410191
 421 141 15 -0.83 3.83057404218 -9.85875413702 -8.81258194105
 422 141 16 0.415 2.85953043304 -9.78940272743 -9.04119666307
 423 141 16 0.415 3.94000556043 9.58671903834 -7.98764270475
 424 142 15 -0.83 1.28717939944 -5.75798374324 -4.16287596804
 425 142 16 0.415 1.37780118422 -4.89066730596 -3.67343762695
 426 142 16 0.415 2.13947931105 -5.95879411126 -4.64584600516
 427 143 15 -0.83 -5.83109408943 1.64080050607 -8.40320592824
 428 143 16 0.415 -6.53043774773 0.952118213356 -8.21180282666
 429 143 16 0.415 -5.28106909766 1.34878868501 -9.18563905944
 430 144 15 -0.83 5.3367838262 -6.47549479595 0.924954514948
 431 144 16 0.415 4.90943497745 -6.21769854747 1.79150748837
 432 144 16 0.415 4.65244895358 -6.4530007226 0.196133687326
 433 145 15 -0.83 -2.77587448521 -3.82460160078 5.45243246303
 434 145 16 0.415 -2.12747520281 -4.574292936 5.31998899399
 435 145 16 0.415 -2.75540757156 -3.53114665141 6.40818624834
 436 146 15 -0.83 1.18083757362 -6.93596274058 0.930645796968
 437 146 16 0.415 1.39122322798 -6.128474303 0.379555695793
 438 146 16 0.415 1.64485848778 -7.73318449185 0.54448252773
 439 147 15 -0.83 -5.55690206654 -4.48286289656 5.22013660691
 440 147 16 0.415 -4.74441868156 -3.90401892743 5.28949371562
 441 147 16 0.415 -5.58254157445 -5.11544879426 5.9942023003
 442 148 15 -0.83 1.70782648446 -4.61792119234 -1.0104842959
 443 148 16 0.415 0.943572149368 -4.01250476074 -1.23271448209
 444 148 16 0.415 2.09449423436 -4.35580141181 -0.126300337759
 445 149 15 -0.83 -6.00129262498 2.62957438482 -1.64017127394
 446 149 16 0.415 -5.95132465084 3.6281051289 -1.61920571458
 447 149 16 0.415 -5.74189814432 2.2640211857 -0.746255527347
 448 150 15 -0.83 -9.00548377658 8.80340571269 4.73807202374
 449 150 16 0.415 -9.2124560066 9.46101060027 5.46244644891
 450 150 16 0.415 -8.20771260239 9.11575284291 4.22231973449
 451 151 15 -0.83 -5.68539765506 -7.6286903159 -1.26292854549
 452 151 16 0.415 -6.47814913865 -7.02085449019 -1.30854317314
 453 151 16 0.415 -5.96104130308 -8.55564925623 -1.51742354005
 454 152 15 -0.83 0.936800000708 5.53184698537 9.33634844481
 455 152 16 0.415 1.09193589622 4.5823243561 9.0636954961
 456 152 16 0.415 0.0185348299949 5.62214586258 9.72188078979
 457 153 15 -0.83 3.66834650288 3.0173541266 2.85010800845
 458 153 16 0.415 3.19391967695 3.56789941595 3.53699888131
 459 153 16 0.415 3.07975716821 2.26105074723 2.56450724958
 460 154 15 -0.83 -0.850363185455 -0.255283329198 3.76366144951
 461 154 16 0.415 -1.49748225364 -0.130324343517 3.01158288746
 462 154 16 0.415 0.0810807744048 -0.282833095111 3.40082104377
 463 155 15 -0.83 9.12488297729 0.560020392424 -5.62491078546
 464 155 16 0.415 8.25435187427 0.950143339162 -5.92487692539
 465 155 16 0.415 9.27696002616 -0.312302329998 -6.08958878059
 466 156 15 -0.83 3.42464899309 0.550585197244 4.95716067032
 467 156 16 0.415 3.24635910123 -0.347596332051 5.35900971523
 468 156 16 0.415 3.04485079365 1.26175632944 5.54875930828
 469 157 15 -0.83 -6.65215413246 7.76883309468 -7.37427781605
 470 157 16 0.415 -7.44131985187 7.25229155247 -7.04200939672