LAMMPS data file via write_data, version 29 Oct 2020, timestep = 403

6505 atoms
14 atom types
6902 bonds
18 bond types
10734 angles
23 angle types
18821 dihedrals
42 dihedral types

9.512286 53.735614 xlo xhi
10.5806 53.752614 ylo yhi
5.9814 64.665814 zlo zhi

Masses

1 12.01
2 1.008
3 12.01
4 16
5 14.01
6 1.008
7 16
8 14.01
9 1.008
10 12.01
11 14.01
12 12.01
13 1.008
14 16

Pair Coeffs # lj/cut/coul/long/omp

1 0.086 3.39967
2 0.015 2.59964
3 0.086 3.39967
4 0.21 2.95992
5 0.17 3.25
6 0.0157 1.06908
7 0.2104 3.06647
8 0.17 3.25
9 0 0
10 0.086 3.39967
11 0.17 3.25
12 0.086 3.39967
13 0.0157 1.06908
14 0.2104 3.06647

Atoms # full

 1 1 2 0.0872 12.017474 12.520167 13.025370
 2 1 2 0.0839 20.348930 16.753777 12.949736
 3 1 7 -0.3790 10.783018 14.729689 12.283228
 4 1 2 0.0000 11.172688 17.891760 12.103275
 5 1 2 0.0000 12.606957 21.474003 10.181225
 6 1 2 0.0872 18.480795 22.524693 12.836136
 7 1 2 0.0000 17.866098 23.098240 6.561995
 8 1 4 -0.2623 17.273268 19.637930 13.193834
 9 1 2 0.0839 11.420391 32.093836 12.994017
 10 1 4 -0.2623 10.120366 25.901887 11.640773
 11 1 2 0.0866 18.915499 12.178187 18.726543
 12 1 1 -0.0632 18.469262 11.239116 19.039561
 13 1 2 0.0871 20.158213 14.940660 20.414098
 14 1 1 0.0400 11.201404 13.861117 14.512837
 15 1 4 -0.2763 18.306804 15.284381 18.677182
 16 1 1 -0.0521 12.677442 12.358396 16.387678
 17 1 2 0.0866 14.386022 15.274571 14.296855
 18 1 1 -0.0632 17.195548 14.037823 15.674521
 19 1 1 0.0077 17.881816 15.231880 15.907779
 20 1 1 -0.0444 17.377595 16.447478 15.504287
 21 1 1 -0.0091 16.120831 16.540438 14.944507
 22 1 10 0.2266 19.254997 15.348107 17.908895
 23 1 11 -0.2514 19.116680 15.266108 16.541411
 24 1 2 0.0896 17.980285 17.332719 15.666516
 25 1 1 -0.0632 13.286989 16.998908 18.254100
 26 1 2 0.0866 14.188459 16.470564 18.627289
 27 1 1 0.0400 12.659625 11.979512 15.029509
 28 1 4 -0.2763 12.015038 12.832177 19.078623
 29 1 1 -0.0645 15.381555 15.337822 14.708384
 30 1 1 -0.0510 12.016421 12.794527 14.077084
 31 1 6 0.1829 19.809671 15.797614 16.030633
 32 1 2 0.0872 13.209466 11.739846 17.125632
 33 1 2 0.0839 15.368633 13.183447 14.844890
 34 1 2 0.0866 17.637859 13.102368 15.993576
 35 1 1 0.0078 12.041395 16.356450 18.285219
 36 1 1 -0.0801 15.942175 14.089547 15.042799
 37 1 1 0.0278 11.956765 13.483097 16.829060
 38 1 10 0.2266 11.929813 13.770189 18.311011
 39 1 6 0.1829 12.317142 15.040871 19.827497
 40 1 11 -0.2514 12.020121 15.051384 18.856227
 41 1 1 0.0078 17.486780 11.227801 20.058691
 42 1 1 -0.0521 11.159859 14.176158 15.890380
 43 1 1 -0.0430 10.841630 17.059854 17.945025
 44 1 12 0.2765 13.228682 10.641755 14.670723
 45 1 2 0.0872 10.469828 14.941428 16.228742
 46 1 12 0.2765 10.302167 14.591053 13.547243
 47 1 2 0.0896 9.910655 16.520611 18.015245
 48 1 7 -0.3790 19.371925 18.859796 13.334337
 49 1 8 -0.3506 15.772369 17.883437 14.839433
 50 1 6 0.1570 15.053535 18.144395 14.221426
 51 1 1 0.0078 10.805979 18.410862 17.486742
 52 1 2 0.0866 11.904156 21.038913 20.560471
 53 1 4 -0.2763 18.386978 20.626395 18.632152
 54 1 1 -0.0521 18.960481 20.722188 15.706749
 55 1 10 0.2266 19.031956 21.505260 18.090498
 56 1 2 0.0839 14.323731 18.758320 17.611860
 57 1 1 0.0400 18.786997 20.981321 14.335894
 58 1 1 -0.0801 13.328112 18.301773 17.717161
 59 1 2 0.0872 19.144468 19.709103 16.062321
 60 1 2 0.0866 12.225570 19.956451 16.838875
 61 1 1 -0.0632 12.120964 18.978350 17.312477
 62 1 2 0.0000 14.876808 19.633756 13.329063
 63 1 12 0.2765 18.449476 19.844653 13.429553
 64 1 2 0.0866 19.508828 20.446892 20.639314
 65 1 1 -0.0632 15.328294 23.796950 16.087282
 66 1 1 -0.0632 14.942248 23.886206 18.492963
 67 1 2 0.0866 15.179450 23.282862 15.143372
 68 1 2 0.0866 14.525291 23.453659 19.400328
 69 1 1 0.0078 16.133306 24.948389 16.164595
 70 1 1 -0.0521 18.559512 22.306121 13.898993
 71 1 11 -0.2514 19.997617 22.307118 18.716244
 72 1 10 0.2266 17.909546 24.713173 14.367758
 73 1 1 -0.0531 18.500304 23.058331 16.197320
 74 1 1 0.0078 20.372472 22.350561 20.095483
 75 1 1 0.0278 18.323776 23.336816 14.832008
 76 1 1 -0.0801 14.742310 23.269572 17.248638
 77 1 2 0.0871 18.395330 23.852490 16.927674
 78 1 2 0.0839 14.135255 22.383763 17.179207
 79 1 1 0.0278 18.829512 21.767204 16.635149
 80 1 6 0.1570 14.998768 18.243416 14.251910
 81 1 1 0.0278 9.563463 24.634173 16.253193
 82 1 2 0.0839 9.929389 22.485446 20.577956
 83 1 11 -0.2514 9.528515 19.052258 17.011595
 84 1 2 0.0839 20.533499 18.521849 19.182150
 85 1 6 0.1829 20.513008 22.943548 18.120875
 86 1 6 0.1829 9.572881 19.310979 16.032686
 87 1 2 0.0866 12.665414 28.947974 20.468271
 88 1 2 0.0871 15.509336 31.672885 16.217621
 89 1 2 0.0839 12.395673 30.464207 18.546380
 90 1 1 -0.0521 10.824175 26.408273 14.429754
 91 1 1 0.0278 11.254731 26.364045 15.771093
 92 1 11 -0.2514 20.434198 30.507640 17.052604
 93 1 2 0.0896 16.853676 26.518889 17.460832
 94 1 1 -0.0430 16.251273 25.619752 17.394155
 95 1 2 0.0871 11.234979 25.144378 17.565456
 96 1 11 -0.2514 12.094175 28.743239 15.988345
 97 1 11 -0.2514 15.866121 25.739302 19.783109
 98 1 6 0.1829 12.857168 29.310221 16.343794
 99 1 2 0.0866 17.957522 28.374206 17.878080
 100 1 1 -0.0632 19.986400 27.102146 20.290727
 101 1 11 -0.2514 17.822722 30.662298 19.335537
 102 1 4 -0.2763 13.140536 27.050522 17.050059
 103 1 6 0.1829 15.524542 26.689893 19.840081
 104 1 1 -0.0632 18.470926 28.316226 18.831138
 105 1 10 0.2266 12.243805 27.384304 16.292261
 106 1 1 -0.0801 10.932314 31.317512 13.592118
 107 1 1 -0.0801 19.239601 27.172583 19.111133
 108 1 4 -0.2763 18.450453 25.229083 13.404393
 109 1 4 -0.2763 16.062872 29.920414 18.080215
 110 1 1 -0.0632 11.741175 30.461678 14.343272
 111 1 1 0.0078 10.565733 28.380636 20.556927
 112 1 2 0.0866 18.661120 31.842522 15.738076
 113 1 1 0.0078 20.264965 31.910592 17.144118
 114 1 10 0.2266 16.705334 30.862616 18.516179
 115 1 1 0.0078 11.164433 29.489945 15.178631
 116 1 1 0.0078 15.667410 25.085947 18.556898
 117 1 2 0.0839 19.298050 26.360862 18.389038
 118 1 2 0.0872 11.323366 27.088919 13.733024
 119 1 6 0.1829 19.559186 29.999890 17.035464
 120 1 6 0.1829 18.332070 31.491539 19.616302
 121 1 1 -0.0632 11.669244 29.107620 20.060493
 122 1 6 0.1829 16.677495 26.326321 14.717481
 123 1 1 -0.0801 11.509848 30.003159 18.992722
 124 1 11 -0.2514 16.895818 25.391309 15.048057
 125 1 2 0.0866 12.822589 30.579573 14.287305
 126 1 1 0.0078 18.447616 29.420699 19.705220
 127 1 1 -0.0531 10.735380 25.350194 16.620941
 128 1 1 -0.0632 10.221542 30.281113 18.486474
 129 1 2 0.0866 10.149353 30.946681 17.630330
 130 1 1 0.0400 9.775212 25.569218 13.993228
 131 1 1 -0.0430 9.737887 29.422713 15.272564
 132 1 1 -0.0632 9.527714 31.189129 13.629772
 133 1 1 0.0277 14.350516 16.852586 21.763000
 134 1 1 -0.0531 14.528942 15.436252 21.496726
 135 1 2 0.0871 13.642693 14.813319 21.428131
 136 1 6 0.1829 17.961325 13.175122 20.753878
 137 1 10 0.2266 15.906771 13.189678 20.999699
 138 1 4 -0.2763 11.944288 16.735377 21.806047
 139 1 11 -0.2514 17.155358 12.547263 20.688037
 140 1 10 0.2266 12.882418 17.505905 21.887705
 141 1 1 0.0277 15.793327 14.733013 21.371086
 142 1 4 -0.2763 14.870779 12.576695 20.824898
 143 1 1 -0.0531 15.585734 17.545639 21.937585
 144 1 1 -0.0531 16.946098 15.495229 21.650567
 145 1 6 0.1829 13.388082 12.329910 23.440428
 146 1 2 0.0871 11.460306 13.056983 22.506973
 147 1 1 -0.0430 16.353405 12.706178 24.906143
 148 1 2 0.0866 17.101840 16.994622 25.138344
 149 1 2 0.0896 16.540634 13.724619 24.602164
 150 1 11 -0.2514 18.967602 16.886934 27.901480
 151 1 6 0.1829 19.335267 15.960884 27.732356
 152 1 10 0.2266 13.200965 14.089923 24.532530
 153 1 10 0.2266 19.382811 13.620171 25.607370
 154 1 1 0.0078 17.447833 11.941145 25.429170
 155 1 6 0.1829 19.470335 11.587659 25.666953
 156 1 2 0.0839 15.149662 17.424501 26.636083
 157 1 11 -0.2514 18.815780 12.354347 25.536786
 158 1 1 0.0277 11.720445 14.493189 24.101570
 159 1 4 -0.2763 13.791240 14.813933 25.316213
 160 1 1 -0.0531 11.003426 15.542041 24.785209
 161 1 1 0.0078 15.046219 12.142367 24.708100
 162 1 4 -0.2763 18.724852 14.639094 25.479200
 163 1 2 0.0896 20.368274 12.104383 23.165590
 164 1 11 -0.2514 13.857302 12.861420 24.159311
 165 1 2 0.0871 11.549048 16.131994 25.514467
 166 1 10 0.2266 18.146641 17.614188 22.368676
 167 1 1 0.0277 16.859546 16.884080 21.972062
 168 1 1 -0.0531 10.962604 13.806757 23.103245
 169 1 2 0.0871 17.895300 14.939271 21.660623
 170 1 4 -0.2763 19.223173 17.235034 21.930446
 171 1 6 0.1829 10.016418 16.546627 27.062550
 172 1 6 0.1829 9.921166 11.462410 22.402143
 173 1 1 0.0277 9.596588 15.797265 24.607780
 174 1 1 -0.0632 14.954335 10.740575 24.971246
 175 1 1 0.0277 9.559188 13.983254 22.896481
 176 1 1 -0.0632 17.243559 10.611012 25.799852
 177 1 1 -0.0632 20.031715 21.316922 20.982704
 178 1 1 -0.0632 11.120858 20.807913 21.275702
 179 1 6 0.1829 13.313052 19.530502 21.874848
 180 1 11 -0.2514 12.537240 18.907240 22.070464
 181 1 1 -0.0632 16.585672 17.949599 25.091806
 182 1 1 0.0078 15.230030 20.450868 24.990136
 183 1 1 -0.0632 19.424482 19.109116 26.764420
 184 1 11 -0.2514 18.126567 18.614131 23.358072
 185 1 1 0.0078 19.854064 17.901881 27.369923
 186 1 2 0.0871 15.564312 18.616349 22.091313
 187 1 1 -0.0801 15.477347 18.183559 25.919188
 188 1 1 -0.0632 14.788224 19.405396 25.830169
 189 1 2 0.0866 13.882340 19.525171 26.408640
 190 1 1 0.0078 17.044830 18.949149 24.226376
 191 1 6 0.1829 19.032404 18.967783 23.673617
 192 1 11 -0.2514 14.416430 21.650564 24.957435
 193 1 2 0.0866 18.413795 19.477682 26.910187
 194 1 1 0.0078 11.238494 19.683813 22.137779
 195 1 2 0.0896 16.794381 20.989602 23.559850
 196 1 1 -0.0430 16.408267 20.221810 24.223077
 197 1 2 0.0839 19.939015 20.732034 25.409533
 198 1 1 -0.0801 20.278716 19.811518 25.885857
 199 1 1 -0.0801 20.412241 21.338800 22.324983
 200 1 2 0.0839 20.138667 20.488670 22.950230
 201 1 4 -0.2763 17.267654 24.218885 20.734683
 202 1 10 0.2266 14.154460 22.568875 23.924783
 203 1 6 0.1829 10.853962 23.871664 27.666844
 204 1 2 0.0871 12.222566 23.048867 25.923472
 205 1 1 0.0277 13.059456 23.636301 24.033344
 206 1 1 -0.0531 12.129616 23.755877 25.108865
 207 1 4 -0.2763 14.745139 22.470925 22.865515
 208 1 4 -0.2623 19.706621 24.624501 27.533219
 209 1 1 -0.0531 12.942406 24.528265 22.936064
 210 1 1 0.0277 11.069301 24.723218 25.078561
 211 1 2 0.0871 13.650032 24.440731 22.112029
 212 1 6 0.1829 13.839429 21.723593 25.772645
 213 1 2 0.0896 10.952010 18.577928 27.977857
 214 1 10 0.2266 9.934997 24.903463 26.133856
 215 1 1 -0.0801 10.008715 21.679265 21.305154
 216 1 1 -0.0430 10.123124 19.539501 23.066063
 217 1 11 -0.2514 10.026189 24.411219 27.452021
 218 1 2 0.0896 10.094606 18.676635 23.714404
 219 1 10 0.2266 16.681932 25.289254 20.799062
 220 1 10 0.2266 11.836817 26.435117 21.638816
 221 1 1 -0.0430 19.192768 29.325887 20.899042
 222 1 2 0.0896 19.181645 30.153426 21.594651
 223 1 1 0.0078 19.967043 28.178126 21.186924
 224 1 4 -0.2763 12.658055 26.346080 20.735578
 225 1 2 0.0872 15.285059 27.597025 21.462444
 226 1 11 -0.2514 10.778169 27.362414 21.561243
 227 1 2 0.0872 17.264553 25.139710 26.908579
 228 1 1 -0.0632 19.750354 31.031811 25.531277
 229 1 11 -0.2514 18.615081 31.313555 27.669545
 230 1 4 -0.2623 16.119021 30.573625 23.999657
 231 1 1 -0.0531 11.006822 25.570732 23.932989
 232 1 4 -0.2763 14.459436 26.454366 25.381796
 233 1 1 -0.0632 10.370827 30.182652 24.381421
 234 1 10 0.2266 17.531663 30.457031 27.836237
 235 1 9 0.2886 14.146407 30.566949 22.944920
 236 1 1 0.0078 19.800064 31.070098 26.935282
 237 1 6 0.1829 13.273764 25.680871 27.440620
 238 1 11 -0.2514 14.177638 26.099655 27.620938
 239 1 1 -0.0801 10.833191 29.603718 25.574659
 240 1 2 0.0866 18.829247 31.296315 25.013628
 241 1 1 0.0278 18.599546 27.196513 23.446126
 242 1 2 0.0839 11.898690 29.392162 25.664558
 243 1 1 0.0277 11.922330 25.501707 22.855844
 244 1 2 0.0872 13.741555 31.874831 27.518957
 245 1 1 -0.0521 16.175228 27.448706 22.067620
 246 1 1 0.0278 16.979023 26.302760 21.864534
 247 1 12 0.2765 19.745385 25.827007 27.735729
 248 1 1 -0.0521 18.703089 28.161599 27.626735
 249 1 1 0.0400 18.601441 26.762730 27.432137
 250 1 1 -0.0521 17.377709 26.218528 27.004702
 251 1 1 0.0278 17.605800 29.017141 27.379531
 252 1 1 -0.0531 16.427607 28.448817 26.868429
 253 1 1 0.0278 16.282026 27.059046 26.758259
 254 1 2 0.0871 15.558880 29.079393 26.703244
 255 1 10 0.2266 14.921576 26.489343 26.508665
 256 1 2 0.0872 18.104352 29.057865 24.380885
 257 1 1 -0.0521 17.738058 28.257358 23.743677
 258 1 7 -0.3790 14.579309 29.774608 22.587488
 259 1 1 -0.0531 18.180783 26.174696 22.575951
 260 1 10 0.2266 20.057087 27.469533 23.596719
 261 1 12 0.2765 15.742639 29.676036 23.262491
 262 1 1 0.0400 16.538795 28.420621 23.029486
 263 1 2 0.0866 11.079059 30.390702 23.579310
 264 1 2 0.0866 10.349414 28.933470 27.564190
 265 1 2 0.0871 18.887936 25.398400 22.297789
 266 1 1 -0.0632 9.938702 29.336860 26.641481
 267 1 6 0.1829 10.082416 27.330010 22.293946
 268 1 2 0.0871 10.214170 26.307125 23.876454
 269 1 6 0.1829 15.739598 10.783538 29.498639
 270 1 2 0.0871 14.679596 12.394675 28.900006
 271 1 4 -0.2763 12.511822 15.815431 28.710472
 272 1 2 0.0871 18.562803 14.326472 28.762488
 273 1 4 -0.2763 18.657292 11.745208 28.872568
 274 1 6 0.1829 12.431909 12.727733 29.285261
 275 1 10 0.2266 12.951851 14.697777 28.921415
 276 1 1 -0.0632 18.594238 15.161434 31.787702
 277 1 10 0.2266 17.675562 16.957195 28.465682
 278 1 1 -0.0801 17.468832 15.963369 32.059797
 279 1 1 -0.0531 15.269550 13.295502 28.914640
 280 1 1 -0.0632 16.246128 15.389775 32.499416
 281 1 1 -0.0531 17.471852 14.376612 28.793789
 282 1 2 0.0866 19.496488 15.633201 31.396796
 283 1 1 0.0078 18.514998 13.762168 31.991842
 284 1 11 -0.2514 11.987647 13.634155 29.168821
 285 1 10 0.2266 17.448605 11.803390 29.028152
 286 1 1 0.0277 16.706917 13.172992 28.925805
 287 1 11 -0.2514 19.648500 12.860007 31.828854
 288 1 1 -0.0531 15.419566 15.697565 28.805206
 289 1 1 0.0277 16.853409 15.652858 28.697424
 290 1 1 0.0277 14.556240 14.540457 28.898457
 291 1 2 0.0871 14.966758 16.683642 28.755231
 292 1 4 -0.2763 14.218260 11.818428 31.617727
 293 1 6 0.1829 19.582091 12.049617 32.425429
 294 1 2 0.0839 17.539848 17.040712 31.892125
 295 1 1 0.0078 10.476771 13.469276 29.231150
 296 1 1 0.0400 10.841116 12.031089 35.158518
 297 1 10 0.2266 13.853386 12.395229 32.626056
 298 1 1 -0.0521 12.108655 12.312469 34.572127
 299 1 1 0.0078 16.069576 13.977576 32.648145
 300 1 1 0.0278 12.418653 11.981015 33.236150
 301 1 2 0.0872 12.886881 12.762309 35.179600
 302 1 1 0.0078 15.084641 17.580637 34.751688
 303 1 2 0.0871 20.200803 14.832536 34.409926
 304 1 1 -0.0430 13.719685 17.184593 34.544551
 305 1 11 -0.2514 11.597156 15.765909 35.054664
 306 1 11 -0.2514 14.756998 13.422287 33.134299
 307 1 4 -0.2763 11.302700 15.800271 32.805804
 308 1 1 -0.0531 11.357585 11.206128 32.561793
 309 1 6 0.1829 14.406220 13.965162 33.912979
 310 1 2 0.0896 17.246895 12.150828 32.628686
 311 1 10 0.2266 10.728513 15.705286 33.878257
 312 1 1 -0.0430 17.265425 13.214231 32.436755
 313 1 4 -0.2763 18.700245 11.508278 34.919500
 314 1 2 0.0866 15.413208 16.062230 32.651186
 315 1 2 0.0896 13.151345 17.766812 33.831345
 316 1 1 -0.0521 9.797779 11.435571 34.396434
 317 1 1 -0.0632 10.001161 12.130670 29.129724
 318 1 2 0.0866 10.719923 11.335499 28.995563
 319 1 1 0.0278 9.990854 10.971745 33.075767
 320 1 2 0.0871 11.603387 10.783335 31.589790
 321 1 11 -0.2514 16.721064 10.627413 29.325280
 322 1 1 0.0078 13.072081 16.102263 35.230569
 323 1 2 0.0896 9.630052 15.479197 29.542825
 324 1 1 -0.0531 13.801672 20.677354 31.871362
 325 1 4 -0.2623 18.569651 20.996019 30.234611
 326 1 1 0.0278 13.663715 21.007871 30.499497
 327 1 11 -0.2514 11.122219 20.133040 30.198480
 328 1 1 -0.0521 14.903451 21.405947 29.864065
 329 1 4 -0.2763 17.167396 18.049222 28.658948
 330 1 1 -0.0521 16.249988 20.817407 31.822238
 331 1 1 0.0400 16.187771 21.274464 30.495629
 332 1 6 0.1829 11.270949 19.661276 31.080977
 333 1 10 0.2266 12.279654 20.878009 29.726195
 334 1 2 0.0872 17.216800 20.686180 32.316801
 335 1 4 -0.2763 12.233038 21.371659 28.611611
 336 1 2 0.0872 14.897003 21.770329 28.842143
 337 1 12 0.2765 17.532613 21.486277 29.812848
 338 1 10 0.2266 19.376922 20.998492 34.660923
 339 1 4 -0.2763 18.747184 19.963189 34.777202
 340 1 1 0.0078 9.871601 19.654763 29.501476
 341 1 11 -0.2514 20.416443 21.135713 33.741286
 342 1 10 0.2266 15.101150 19.928022 33.892259
 343 1 6 0.1829 16.343448 18.384533 33.289164
 344 1 1 0.0278 15.063211 20.523436 32.508783
 345 1 11 -0.2514 15.655064 18.653828 33.986976
 346 1 4 -0.2763 14.355706 20.363369 34.747205
 347 1 2 0.0871 12.911834 20.460159 32.443531
 348 1 2 0.0866 14.212982 24.115559 29.456283
 349 1 2 0.0839 15.086439 24.290710 31.762131
 350 1 7 -0.3790 17.558613 22.217817 28.676449
 351 1 9 0.2886 18.623728 22.994232 31.268760
 352 1 7 -0.3790 19.207951 23.756533 31.430990
 353 1 9 0.2886 18.488290 22.195382 28.367765
 354 1 1 -0.0632 12.674620 23.217224 34.857107
 355 1 1 -0.0801 11.335234 23.252174 34.420894
 356 1 2 0.0866 13.473747 23.472815 34.166367
 357 1 2 0.0839 11.147299 23.628757 33.415349
 358 1 4 -0.2623 17.663770 24.115627 33.012125
 359 1 12 0.2765 18.587384 24.538173 32.345020
 360 1 1 -0.0430 9.969097 18.811792 28.355051
 361 1 1 -0.0632 10.252550 22.827830 35.236697
 362 1 1 -0.0801 15.046053 25.178810 31.139713
 363 1 2 0.0871 19.595255 30.402879 31.200341
 364 1 4 -0.2763 18.051610 28.500060 30.694559
 365 1 1 -0.0632 15.499079 26.415654 31.640645
 366 1 1 -0.0632 14.554429 25.079700 29.826114
 367 1 1 -0.0521 20.293042 26.348299 31.830896
 368 1 1 0.0277 17.473374 30.743565 31.257441
 369 1 1 -0.0430 14.908393 27.460164 29.533833
 370 1 1 0.0078 14.538994 26.214692 28.994069
 371 1 2 0.0896 14.843390 28.347959 28.916784
 372 1 2 0.0871 15.410955 31.419825 31.377088
 373 1 10 0.2266 17.193158 29.263573 31.105021
 374 1 2 0.0872 19.616999 28.546125 28.079022
 375 1 4 -0.2763 16.485741 30.884206 28.297539
 376 1 1 -0.0531 16.454014 31.722488 31.356867
 377 1 1 0.0078 15.412385 27.565886 30.840038
 378 1 6 0.1829 15.196243 29.489708 31.594957
 379 1 4 -0.2623 11.244250 30.447780 30.076185
 380 1 1 -0.0531 18.818174 31.161501 31.257668
 381 1 11 -0.2514 15.894361 28.820891 31.296039
 382 1 9 0.2886 14.072256 31.069827 29.180988
 383 1 7 -0.3790 13.435766 30.477166 29.621351
 384 1 12 0.2765 12.186811 31.019293 29.553973
 385 1 2 0.0839 12.940344 27.308297 32.761031
 386 1 2 0.0872 17.737071 26.424768 34.095348
 387 1 4 -0.2763 10.062953 31.668228 32.473321
 388 1 1 -0.0801 12.297263 27.584032 33.597086
 389 1 1 0.0078 17.873089 31.439038 34.956316
 390 1 2 0.0866 13.673161 29.136641 34.224771
 391 1 1 -0.0632 12.723798 28.626856 34.425728
 392 1 11 -0.2514 18.711778 30.373026 34.537868
 393 1 1 -0.0521 18.595867 26.760019 33.521740
 394 1 1 -0.0632 11.069887 26.911168 33.842287
 395 1 1 -0.0632 16.501452 31.355808 34.666196
 396 1 10 0.2266 18.398528 29.020249 34.661706
 397 1 2 0.0866 16.116638 30.488457 34.137128
 398 1 2 0.0866 10.820039 26.103208 33.162637
 399 1 1 0.0278 19.104161 28.063956 33.727030
 400 1 1 -0.0531 20.232521 28.475176 32.990512
 401 1 6 0.1829 19.418893 30.601927 33.851755
 402 1 1 0.0400 19.185371 25.897285 32.575674
 403 1 2 0.0866 15.907001 26.483782 32.645544
 404 1 1 0.0078 10.204898 27.264931 34.927769
 405 1 2 0.0866 16.945792 17.162881 35.821314
 406 1 11 -0.2514 20.487376 17.214926 38.435234
 407 1 1 -0.0632 19.561182 15.365309 39.696490
 408 1 11 -0.2514 18.415723 13.375613 36.151088
 409 1 1 -0.0801 15.300262 15.860720 36.428976
 410 1 2 0.0866 18.116941 12.447726 38.656347
 411 1 2 0.0866 10.872390 12.421032 41.829610
 412 1 2 0.0839 15.941225 15.364320 37.177106
 413 1 1 -0.0531 12.307654 17.312348 40.025585
 414 1 1 -0.0801 18.916364 14.123899 39.761965
 415 1 1 -0.0632 18.578105 13.434587 38.586222
 416 1 10 0.2266 19.202943 12.501469 35.414118
 417 1 1 0.0078 18.823643 14.035975 37.334603
 418 1 1 -0.0430 19.404142 15.314213 37.274214
 419 1 1 0.0078 19.821774 15.962455 38.453983
 420 1 4 -0.2623 11.363633 13.157829 37.214142
 421 1 2 0.0871 12.931251 17.048169 40.878780
 422 1 6 0.1829 17.422439 13.177216 36.133269
 423 1 2 0.0866 19.865062 15.856617 40.615668
 424 1 2 0.0866 13.546465 14.691104 36.869541
 425 1 2 0.0866 16.516468 14.273444 42.012443
 426 1 1 0.0278 11.143874 16.490599 39.773838
 427 1 2 0.0896 19.534386 15.793055 36.309769
 428 1 2 0.0839 18.692526 13.696307 40.729016
 429 1 12 0.2765 10.607871 12.416615 36.607987
 430 1 1 -0.0632 15.890173 16.890321 35.674247
 431 1 2 0.0839 14.054584 14.245882 41.964403
 432 1 1 -0.0632 13.927879 15.484085 36.221660
 433 1 4 -0.2763 11.502576 14.939473 41.525115
 434 1 2 0.0839 12.959318 10.995799 38.727107
 435 1 6 0.1829 11.156842 15.566009 35.942366
 436 1 10 0.2266 10.757934 15.214795 40.603562
 437 1 1 -0.0521 10.328259 16.901882 38.711605
 438 1 1 -0.0632 9.860490 12.176265 41.526541
 439 1 11 -0.2514 9.616391 14.383462 40.281430
 440 1 2 0.0866 13.693162 10.696862 41.093438
 441 1 7 -0.3790 9.546679 11.857187 37.251334
 442 1 6 0.1829 14.657427 19.561829 37.718147
 443 1 4 -0.2763 14.109113 19.617716 40.802263
 444 1 1 -0.0632 17.182257 19.525776 38.109878
 445 1 1 -0.0801 18.511934 19.933732 37.935997
 446 1 1 0.0078 16.244507 20.307518 38.809826
 447 1 2 0.0872 12.098548 19.581692 37.456908
 448 1 2 0.0866 16.859960 18.607636 37.633810
 449 1 2 0.0839 19.171691 19.336820 37.324234
 450 1 11 -0.2514 14.849354 19.855112 38.668930
 451 1 2 0.0866 20.011198 21.405766 38.263624
 452 1 10 0.2266 13.914407 19.365573 39.624996
 453 1 1 0.0400 10.629833 18.009692 37.884776
 454 1 2 0.0866 17.149348 18.568182 41.985982
 455 1 1 -0.0521 11.836729 18.751530 38.114417
 456 1 2 0.0839 19.298612 18.064739 40.751416
 457 1 1 0.0278 12.688573 18.455532 39.226046
 458 1 1 -0.0801 19.300494 18.402716 41.788006
 459 1 1 -0.0632 18.981666 21.127447 38.486459
 460 1 6 0.1829 20.279882 17.815381 39.233429
 461 1 1 -0.0632 20.531315 18.552738 42.438346
 462 1 1 -0.0632 18.106657 18.684586 42.481970
 463 1 1 -0.0430 16.742378 21.527930 39.390029
 464 1 1 -0.0430 11.870789 22.383195 36.983394
 465 1 11 -0.2514 14.507523 22.859708 36.426098
 466 1 1 0.0277 18.928341 22.249798 35.376895
 467 1 11 -0.2514 18.539011 23.225272 39.746329
 468 1 1 -0.0801 11.096078 23.627393 40.420257
 469 1 6 0.1829 14.934232 21.946846 36.301605
 470 1 1 0.0078 13.015100 22.855239 36.166298
 471 1 1 0.0277 17.051333 23.655610 36.228157
 472 1 1 -0.0531 18.053171 24.655410 36.511136
 473 1 1 -0.0632 12.032675 23.176370 41.363407
 474 1 1 0.0078 10.454671 22.303553 36.542239
 475 1 10 0.2266 19.789354 23.867274 39.708455
 476 1 2 0.0839 11.109805 23.192470 39.427304
 477 1 1 0.0277 19.454891 24.436237 36.315170
 478 1 2 0.0896 12.072242 22.084038 38.006329
 479 1 1 -0.0531 17.547788 22.446794 35.678135
 480 1 10 0.2266 15.500862 23.914657 36.384005
 481 1 6 0.1829 17.797734 23.768509 40.168860
 482 1 1 -0.0531 19.876287 23.221138 35.749505
 483 1 2 0.0896 16.074734 22.204533 39.920544
 484 1 2 0.0866 12.691130 22.363943 41.094705
 485 1 1 0.0078 18.107533 21.946820 39.232464
 486 1 7 -0.3790 9.815720 19.232340 35.867738
 487 1 1 -0.0632 10.202853 24.654299 40.739292
 488 1 2 0.0871 16.825552 21.671965 35.416560
 489 1 12 0.2765 9.581580 18.293346 36.808231
 490 1 11 -0.2514 9.766512 26.632246 42.021030
 491 1 2 0.0871 17.757383 25.633152 36.885998
 492 1 2 0.0872 17.801140 25.337700 40.922939
 493 1 2 0.0872 12.659884 26.605863 41.334881
 494 1 1 0.0278 11.265692 28.004410 40.409166
 495 1 1 0.0078 18.110203 32.031000 40.824259
 496 1 1 -0.0632 20.153978 29.078645 37.554711
 497 1 1 0.0277 14.365419 31.253563 41.350142
 498 1 2 0.0866 19.205376 28.888717 38.045765
 499 1 11 -0.2514 20.004225 26.820491 36.607348
 500 1 4 -0.2763 12.682798 31.483976 38.024712
 501 1 1 -0.0531 11.176517 29.006078 39.405023
 502 1 4 -0.2763 17.524194 28.630690 35.420796
 503 1 2 0.0872 20.032350 28.941989 41.563140
 504 1 6 0.1829 16.801527 30.940433 41.996972
 505 1 6 0.1829 12.891469 30.837164 35.701290
 506 1 1 0.0277 12.017551 31.586407 42.015883
 507 1 11 -0.2514 12.345536 30.165313 36.232081
 508 1 1 -0.0521 18.731986 25.888579 40.831746
 509 1 2 0.0839 20.272001 31.146359 38.197955
 510 1 12 0.2765 17.630196 27.746373 42.115792
 511 1 1 -0.0430 19.232520 31.712465 41.634659
 512 1 1 0.0278 19.850532 25.288450 40.219401
 513 1 11 -0.2514 16.824683 31.452906 41.122589
 514 1 1 0.0400 18.812447 27.181602 41.377432
 515 1 1 -0.0521 12.494325 27.287242 40.509014
 516 1 4 -0.2763 15.139918 25.078985 36.433388
 517 1 6 0.1829 18.990656 26.878007 36.655914
 518 1 1 -0.0521 19.994271 27.921864 41.201176
 519 1 1 -0.0521 13.379422 28.444608 38.559627
 520 1 1 0.0400 13.542104 27.481744 39.564311
 521 1 4 -0.2623 16.524963 27.240741 42.061766
 522 1 2 0.0872 14.194379 28.640550 37.865995
 523 1 10 0.2266 12.264435 30.424538 37.591345
 524 1 12 0.2765 14.866835 26.753435 39.593002
 525 1 4 -0.2623 15.853385 27.152696 38.992942
 526 1 7 -0.3790 14.842511 25.489886 40.072077
 527 1 9 0.2886 13.912494 25.225398 40.138611
 528 1 1 0.0078 11.906281 29.024076 35.493297
 529 1 1 0.0278 12.224232 29.228733 38.490931
 530 1 1 -0.0430 10.654325 28.368267 35.714076
 531 1 10 0.2266 15.568100 31.661157 40.530969
 532 1 1 -0.0531 14.486209 30.241433 42.322725
 533 1 2 0.0871 15.445703 29.758380 42.455231
 534 1 2 0.0896 19.113242 30.977068 42.419517
 535 1 1 -0.0531 13.116155 31.907467 41.189752
 536 1 4 -0.2763 9.690406 31.789502 41.522920
 537 1 1 0.0078 10.406628 25.368727 41.929140
 538 1 2 0.0871 10.302702 29.647490 39.350371
 539 1 2 0.0896 10.006892 28.743945 36.493432
 540 1 10 0.2266 10.039664 27.813799 41.317935
 541 1 10 0.2266 20.502691 25.524510 36.557132
 542 1 1 -0.0632 15.967754 14.003537 42.911618
 543 1 2 0.0871 20.462669 13.325001 42.853140
 544 1 1 -0.0801 14.570037 13.975921 42.883076
 545 1 2 0.0866 12.763201 13.650291 44.001641
 546 1 1 -0.0801 14.201649 17.293368 44.266630
 547 1 1 0.0078 16.659860 13.720578 44.098522
 548 1 11 -0.2514 14.235607 15.814286 47.673676
 549 1 4 -0.2763 14.186217 17.229302 49.470467
 550 1 7 -0.3790 17.938050 12.298452 48.167913
 551 1 1 0.0278 12.625178 12.103049 48.541339
 552 1 2 0.0871 20.446191 16.503396 45.802495
 553 1 2 0.0866 15.552989 16.085831 45.446116
 554 1 10 0.2266 14.412464 16.114275 49.031291
 555 1 4 -0.2763 14.833646 11.613903 47.674299
 556 1 10 0.2266 13.766334 12.183583 47.488698
 557 1 1 0.0277 20.295453 14.832352 44.414872
 558 1 4 -0.2763 18.618740 14.634626 46.109438
 559 1 1 -0.0430 15.923137 13.324211 45.253763
 560 1 1 0.0078 14.492780 13.265675 45.235216
 561 1 2 0.0896 16.467248 13.082547 46.156671
 562 1 1 -0.0521 13.051273 11.646242 49.804046
 563 1 9 0.2886 17.230141 12.904895 47.905389
 564 1 1 -0.0531 11.208674 12.366732 48.349542
 565 1 2 0.0871 10.879392 12.634681 47.353718
 566 1 1 -0.0521 16.096759 14.213809 49.270657
 567 1 1 0.0278 15.147747 15.067511 49.885543
 568 1 2 0.0872 16.230967 14.240966 48.193900
 569 1 12 0.2765 18.020746 12.505560 49.491100
 570 1 1 -0.0632 13.846458 13.621723 44.035741
 571 1 6 0.1829 14.675442 14.947092 47.386402
 572 1 11 -0.2514 18.087013 13.853067 44.027710
 573 1 10 0.2266 18.967940 14.362280 44.973465
 574 1 2 0.0896 11.896407 17.329023 47.363992
 575 1 11 -0.2514 13.606109 12.977341 46.353090
 576 1 6 0.1829 12.683625 13.376437 46.256453
 577 1 1 -0.0632 14.595917 16.609362 45.423869
 578 1 1 0.0078 13.766701 16.604986 46.557018
 579 1 1 -0.0430 12.498977 17.261574 46.466074
 580 1 4 -0.2623 20.361157 10.916616 44.230212
 581 1 2 0.0839 14.898080 17.348052 43.430941
 582 1 7 -0.3790 20.233569 11.113115 46.424908
 583 1 6 0.1829 18.468223 13.804401 43.085908
 584 1 9 0.2886 19.408781 11.336201 46.886364
 585 1 1 0.0278 10.195624 12.191043 49.379625
 586 1 2 0.0872 14.111531 11.447919 49.973871
 587 1 1 -0.0531 14.484856 20.895428 45.270481
 588 1 6 0.1829 16.347100 20.136082 43.835887
 589 1 4 -0.2763 17.174192 18.722910 46.533208
 590 1 12 0.2765 13.475245 20.882287 49.490894
 591 1 2 0.0871 14.695369 20.858299 44.207239
 592 1 1 -0.0521 13.059123 21.588838 47.101532
 593 1 9 0.2886 14.909896 19.670703 49.758440
 594 1 1 -0.0632 12.935066 17.913355 44.193510
 595 1 1 0.0078 18.144068 19.124427 43.820137
 596 1 6 0.1829 11.156521 19.667947 45.410232
 597 1 11 -0.2514 10.833703 18.731811 45.190547
 598 1 1 -0.0521 14.966538 20.171327 47.555768
 599 1 2 0.0896 19.444414 19.482319 45.530061
 600 1 1 0.0400 13.844418 20.872089 48.025192
 601 1 11 -0.2514 16.945455 19.582685 44.435542
 602 1 1 0.0278 15.300272 20.169893 46.183801
 603 1 1 0.0278 13.370687 21.641537 45.722892
 604 1 2 0.0872 15.568875 19.623348 48.273802
 605 1 1 -0.0430 19.388158 19.191162 44.486152
 606 1 1 0.0078 11.999674 17.843023 45.248918
 607 1 10 0.2266 16.536920 19.410863 45.750912
 608 1 4 -0.2763 19.122182 21.158662 47.809752
 609 1 2 0.0866 12.689595 18.529865 43.342656
 610 1 1 0.0078 12.084518 23.713141 42.661057
 611 1 1 -0.0430 11.298697 24.871829 42.923685
 612 1 10 0.2266 12.424413 22.438019 44.820910
 613 1 1 -0.0521 18.476282 22.932467 45.651398
 614 1 2 0.0872 17.951961 21.983979 45.639144
 615 1 11 -0.2514 12.890498 23.030253 43.644103
 616 1 1 -0.0531 20.178011 24.394621 46.546988
 617 1 1 0.0400 18.102410 23.924926 44.728710
 618 1 1 0.0278 19.512099 23.155795 46.580673
 619 1 6 0.1829 13.816562 22.761405 43.336377
 620 1 4 -0.2763 11.266146 22.609717 45.164620
 621 1 12 0.2765 16.968415 23.669228 43.780122
 622 1 2 0.0872 12.187242 22.119584 47.470434
 623 1 7 -0.3790 15.984685 24.600758 43.805049
 624 1 10 0.2266 19.898884 22.066158 47.558468
 625 1 4 -0.2623 16.826398 22.613166 43.184391
 626 1 6 0.1829 10.595117 24.270412 48.854155
 627 1 4 -0.2623 12.571631 21.571153 49.939229
 628 1 1 -0.0531 12.159782 30.531398 42.939906
 629 1 7 -0.3790 17.896073 28.666819 43.070361
 630 1 9 0.2886 18.854077 28.656494 43.206986
 631 1 2 0.0872 19.859476 26.260910 48.794748
 632 1 1 -0.0632 14.211406 26.345217 46.040069
 633 1 1 -0.0801 14.519334 25.743728 47.271535