LAMMPS data file via write_data, version 29 Oct 2020, timestep = 403

6756 atoms
14 atom types
7188 bonds
18 bond types
11158 angles
23 angle types
19519 dihedrals
42 dihedral types

9.512286 53.735614 xlo xhi
10.5806 53.752614 ylo yhi
5.9814 64.665814 zlo zhi

Masses

1 12.01
2 1.008
3 12.01
4 16
5 14.01
6 1.008
7 16
8 14.01
9 1.008
10 12.01
11 14.01
12 12.01
13 1.008
14 16

Pair Coeffs # lj/cut/coul/long/omp

1 0.086 3.39967
2 0.015 2.59964
3 0.086 3.39967
4 0.21 2.95992
5 0.17 3.25
6 0.0157 1.06908
7 0.2104 3.06647
8 0.17 3.25
9 0 0
10 0.086 3.39967
11 0.17 3.25
12 0.086 3.39967
13 0.0157 1.06908
14 0.2104 3.06647

Atoms # full

5392 1 2 0.0586 12.017473638731543 12.520166732784164 13.02537037616874 0 0 0
1408 1 2 0.1829 20.348930285740927 16.753777234043202 12.949736132806038 0 0 0
6642 1 7 -0.2415 13.878994745615286 16.569857078974408 12.462689867728407 0 0 0
6710 1 7 -0.2415 10.78301811556208 14.729689214984111 12.283228297396093 0 0 0
4280 1 1 0.0839 13.003913166845665 18.682489127189733 12.813448812967302 0 0 0
4277 1 1 -0.0632 11.84852239207957 18.73759828410434 12.052938061965422 0 0 0
4279 1 1 0.2266 13.966215186162616 19.679505113615544 12.747923023970502 0 0 0
4282 1 2 -0.0521 11.172688451092878 17.89176045709125 12.103274901445626 0 0 0
4278 1 1 0.0872 13.873063712924894 20.652726722793286 11.7680085574797 0 0 0
4276 1 1 0.1829 11.632409506497117 19.77828775924257 11.150534659074056 0 0 0
4275 1 1 0.0866 12.698380349950648 20.713063063675982 10.951705697959088 0 0 0
4281 1 2 0.0078 12.606956555393271 21.474003216875193 10.181224961521401 0 0 0
3093 1 6 0.0277 14.388630928106556 22.7248308993233 10.416575961548032 0 0 0
3087 1 2 0.0871 15.994505341861435 21.990082098819755 7.770586223506736 0 0 0
5183 1 2 -0.379 18.48079512764205 22.524693479585622 12.836135861364248 0 0 0
4288 1 4 0.0872 15.381069961331148 22.280399857025152 12.617308801189672 0 0 0
4284 1 12 -0.2763 15.10581890895351 21.51336843373442 11.707148303032287 0 0 0
3081 1 1 -0.0521 16.51174657501271 22.833500993081202 8.219629342130272 0 0 0
3082 1 1 -0.2763 17.57311097026955 23.44828911008046 7.546963046771944 0 0 0
3083 1 1 0.0278 18.206690388141915 24.555280375757327 8.129257728956595 0 0 0
3084 1 1 0.0866 16.00485227804746 23.429217286025494 9.38222097726149 0 0 0
3092 1 2 -0.043 16.444474318260983 24.75325773734713 11.046903984410623 0 0 0
3085 1 1 0.0277 16.78577605604501 24.3710738307532 10.086041412755772 0 0 0
3086 1 1 -0.0632 17.890658876912866 24.963424303362935 9.43632395765986 0 0 0
3088 1 2 -0.2763 17.86609832717245 23.098240264102106 6.561994824856983 0 0 0
3091 1 8 -0.0531 14.646423897751697 23.296765738900145 9.627659309525026 0 0 0
6665 1 6 0.157 14.40564331964231 22.716009377803587 10.427812488562036 0 0 0
6666 1 7 -0.2415 16.105730128295928 20.961406424302236 10.975318458380666 0 0 0
5190 1 4 0.2765 17.273267629275615 19.637929626368294 13.193833918728673 0 0 0
4286 1 12 -0.0632 10.304228203911894 19.761174319206603 10.412108731478003 1 0 0
4287 1 4 0.0277 10.182752396403895 20.11758488816228 9.25559534154709 1 0 0
806 1 2 -0.3506 11.420391315065727 32.093836043003 12.994017072090593 0 0 0
3090 1 8 0.0078 18.62591843690566 26.007191028976578 9.991710946592235 0 0 0
3094 1 6 0.0078 18.980782480212238 25.893428309428632 10.926892219378226 0 0 0
3089 1 2 0.0278 18.966401556639973 25.086426406455264 7.569485002299088 0 0 0
6029 1 4 0.0866 10.12036584203891 25.90188700178025 11.640773083721859 0 0 0
6659 1 6 0.157 18.97492467480081 25.87108357923399 10.938183391296997 0 0 0
287 1 2 -0.0531 18.91549897659613 12.178186803708641 18.726542541318103 0 0 0
281 1 1 0.1829 18.469262418354866 11.23911586635489 19.0395606742993 0 0 0
6309 1 2 0.0078 20.15821343269604 14.94066022280789 20.414097651224765 0 0 0
5389 1 1 0.0866 11.201404385562265 13.861116741868651 14.512836618166633 0 0 0
6315 1 4 0.0839 18.30680371403974 15.284381314253302 18.677182473601707 0 0 0
5388 1 1 0.0277 12.677442392687169 12.358396224191633 16.387677910336013 0 0 0
2221 1 2 0.0871 14.386021952265356 15.274570625890199 14.296855409621392 0 0 0
2213 1 1 -0.0531 17.195547970893514 14.037823174593715 15.67452142105262 0 0 0
4289 1 4 0.0866 12.842344880325951 17.045983635415674 14.46440651537341 0 0 0
2216 1 1 0.1829 17.881815605913626 15.231879872037814 15.90777920128064 0 0 0
2217 1 1 0.0839 17.377595247547266 16.4474776184517 15.504287429708775 0 0 0
2218 1 1 -0.0632 16.120831108703968 16.54043751946133 14.944507480540231 0 0 0
6311 1 10 0.0866 19.254996838498787 15.348107249760078 17.908895095983034 0 0 0
2223 1 11 -0.2763 19.116679522819297 15.266107621159463 16.541410794684538 0 0 0
2224 1 2 -0.2763 17.98028507531768 17.332718899660446 15.666516271982042 0 0 0
2451 1 1 -0.2415 13.286988766528442 16.998907535800836 18.254099623197572 0 0 0
2457 1 2 -0.2763 14.188459165857589 16.470563619189942 18.62728916611204 0 0 0
5387 1 1 0.0872 12.659624549220785 11.979512024806416 15.0295094246319 0 0 0
5400 1 4 0.157 12.015038456377432 12.832177098615546 19.078622548782707 0 0 0
2215 1 1 0.1829 15.381555356417444 15.337822484093358 14.708383720279906 0 0 0
5386 1 1 -0.2763 12.016421265022313 12.794526735071402 14.07708364430484 0 0 0
2225 1 6 0.1829 19.809671156359858 15.797614355870282 16.030632792425177 0 0 0
5393 1 2 -0.2763 13.209465512358129 11.739845793260798 17.125632476969873 0 0 0
2220 1 2 0.2765 15.368633187897697 13.183446568285119 14.84489040594688 0 0 0
2219 1 2 0.0872 17.637859131715725 13.102367758311024 15.993576418247542 0 0 0
2454 1 1 0.0077 12.04139520178451 16.356450106880214 18.285219404634194 0 0 0
2214 1 1 -0.0531 15.942174883659604 14.08954725211052 15.042799273151397 0 0 0
5391 1 1 -0.2763 11.956765344119557 13.483096559571909 16.8290596907842 0 0 0
5396 1 10 0.0078 11.929812734575105 13.770188957610136 18.31101078629434 0 0 0
2463 1 6 -0.043 12.317142133729483 15.040871100864162 19.827497273720613 0 0 0
2461 1 11 0.0078 12.02012093315034 15.051384430099821 18.856227194989714 0 0 0
284 1 1 -0.0632 17.486779943962016 11.22780064484376 20.058691257939007 0 0 0
5390 1 1 -0.043 11.159858610662237 14.17615754891313 15.890380265572132 0 0 0
2455 1 1 -0.0645 10.84162950110735 17.05985408480251 17.945025212032935 0 0 0
4285 1 12 -0.2763 13.323806005730773 17.387947021804273 13.39501254438232 0 0 0
5397 1 12 0.0871 13.228681741830973 10.641755234075552 14.67072276165032 0 1 0
5394 1 2 0.0839 10.469828028989978 14.94142833805322 16.228741885327864 1 0 0
5395 1 12 -0.0091 10.302167475224968 14.59105327993262 13.547243270467538 1 0 0
2462 1 2 0.0871 9.910655063600606 16.520610584037428 18.015245260190103 1 0 0
6654 1 7 -0.2415 19.371924505375663 18.859795569282266 13.334336886631803 0 0 0
2222 1 8 -0.0801 15.77236900426436 17.883436944954532 14.839433260456577 0 0 0
2226 1 6 -0.0531 15.053534989423445 18.144395163088184 14.22142595292956 0 0 0
2456 1 1 -0.2415 10.805978709969926 18.410862184380168 17.48674187238483 0 0 0
49 1 2 -0.0092 11.90415614709067 21.03891273340592 20.56047147991382 0 0 0
5189 1 4 -0.0521 18.386977589674096 20.626395196793652 18.632151938676905 0 0 0
5180 1 1 -0.0632 18.960481186144825 20.722188260781724 15.706748978898146 0 0 0
5185 1 10 0.2886 19.031955536617552 21.505260100370567 18.090498252406064 0 0 0
2458 1 2 -0.379 14.323731151275176 18.758320181764685 17.611859793393553 0 0 0
5181 1 1 0.0278 18.786997459152627 20.981321050751742 14.335894145812123 0 0 0
2452 1 1 -0.0632 13.328112399909257 18.30177330740328 17.71716056700308 0 0 0
5184 1 2 -0.2514 19.14446831131009 19.709103449315382 16.062321072771528 0 0 0
2459 1 2 -0.2415 12.22556983022528 19.956450730403674 16.838874940257465 0 0 0
2453 1 1 -0.0801 12.120964245074756 18.978349866571268 17.312476637630873 0 0 0
4283 1 2 -0.2514 14.87680804065697 19.633756422434747 13.329063030601983 0 0 0
5186 1 12 -0.2514 18.449476345774773 19.844653240030464 13.429552668488501 0 0 0
1379 1 2 -0.2514 19.508827902894257 20.446891811237723 20.639314251434744 0 0 0
1261 1 1 -0.2763 15.328293729592582 23.796949673548777 16.087281618443324 0 0 0
1263 1 1 0.0871 14.942248450054889 23.88620646682728 18.49296306531621 0 0 0
1267 1 2 0.0896 15.17945017969232 23.282862155160252 15.143371847783248 0 0 0
1269 1 2 -0.0507 14.525290793923643 23.453658698399853 19.400328392293723 0 0 0
1264 1 1 -0.0632 16.13330552793281 24.94838874657388 16.16459451836164 0 0 0
5178 1 1 0.1829 18.559512409930868 22.30612076912807 13.898993033283718 0 0 0
1383 1 11 -0.2514 19.997616957452145 22.30711789995208 18.716244066135257 0 0 0
5187 1 10 0.0078 17.909546113383264 24.713172710521373 14.367758339965775 0 0 0
5176 1 1 0.1829 18.5003035672242 23.058330951607097 16.197319788712694 0 0 0
1376 1 1 -0.0801 20.37247153723131 22.350560847939438 20.09548301481179 0 0 0
5177 1 1 0.0871 18.32377601533601 23.33681610966983 14.832008439932299 0 0 0
1262 1 1 0.0866 14.742310157788044 23.269571592403135 17.248638189104437 0 0 0
5182 1 2 0.0277 18.395329623850838 23.852489566814 16.927674204376498 0 0 0
1268 1 2 -0.2623 14.135254907798766 22.383763239199737 17.179206700483583 0 0 0
5179 1 1 0.2765 18.829511711792442 21.767203557183482 16.635149138687588 0 0 0
6641 1 6 0.157 14.99876814481615 18.243415986425497 14.251910303105685 0 0 0
6017 1 1 -0.2514 9.563463446778343 24.634173175924285 16.253193367279483 1 0 0
50 1 2 0.0866 9.929388597250847 22.48544636118305 20.577956000006356 1 0 0
2460 1 11 -0.2514 9.528515064948614 19.052257518160847 17.01159465433955 1 0 0
512 1 2 -0.0521 20.533499022039123 18.521848528972736 19.182149618943612 0 0 0
1385 1 6 0.2886 20.513007588934222 22.94354843701342 18.120874989672952 0 0 0
2464 1 6 0.1829 9.572881042957324 19.31097925772831 16.03268603175632 1 0 0
1827 1 2 0.0277 12.665413781572203 28.947974410122185 20.46827133185815 0 0 0
3671 1 2 0.0872 15.50933608880439 31.67288518623965 16.217620568426117 0 0 0
1828 1 2 -0.2514 12.395673393651686 30.464206812616865 18.546380254236848 0 0 0
6020 1 1 0.1829 10.824175235486596 26.408273219285622 14.429754241036274 0 0 0
6021 1 1 0.0866 11.25473113165169 26.364045355124958 15.771092943794631 0 0 0
1816 1 11 0.0277 20.434198393875597 30.507639586631246 17.052603996434044 0 0 0
1272 1 2 0.0278 16.853676077625767 26.51888929264362 17.460831866101877 0 0 0
1265 1 1 0.0586 16.251272946275634 25.619751634012548 17.394154719016996 0 0 0
6023 1 2 0.0839 11.234979065700044 25.144378164340498 17.565455693700866 0 0 0
808 1 11 0.0078 12.094174837567026 28.743239387230233 15.988345129962196 0 0 0
1270 1 11 0.0871 15.86612109507561 25.739302053234848 19.78310935479076 0 0 0
812 1 6 0.2765 12.857167569076672 29.310221390492416 16.34379359233114 0 0 0
2851 1 2 -0.379 17.957522380294417 28.37420637626088 17.878079654233233 0 0 0
2843 1 1 -0.2623 19.986399636056547 27.102146199994447 20.290727415908233 0 0 0
2852 1 11 -0.0531 17.822722392692835 30.662297997688714 19.335536703756244 0 0 0
6030 1 4 -0.0521 13.140536071425325 27.0505218412486 17.05005868624743 0 0 0
1274 1 6 0.0278 15.52454202604324 26.689893002064323 19.840081239459664 0 0 0
2845 1 1 -0.3506 18.47092582484422 28.316225584243924 18.831137895884478 0 0 0
6026 1 10 -0.0531 12.24380492657521 27.384303773071228 16.29226111125492 0 0 0
800 1 1 0.0866 10.93231425850901 31.31751218463655 13.59211819062108 0 0 0
2844 1 1 -0.2763 19.23960143583793 27.172583443418112 19.111133159608944 0 0 0
5188 1 4 -0.043 18.45045283589395 25.229082595170247 13.404392513071233 0 0 0
3676 1 4 0.0871 16.062872389914908 29.920414265053314 18.080215046108204 0 0 0
801 1 1 0.0278 11.741175479892066 30.461678202838335 14.343271696499524 0 0 0
1824 1 1 -0.0801 10.56573296566033 28.38063641042515 20.556926800059035 0 0 0
1815 1 2 0.2266 18.66111974332464 31.842522451116203 15.738075535547418 0 0 0
1812 1 1 -0.2514 20.264965356457374 31.91059188350817 17.14411835388823 0 0 0
3672 1 10 -0.2763 16.705333970521156 30.86261550517019 18.51617887762998 0 0 0
804 1 1 0.3852 11.164433180107137 29.48994454202261 15.178631316543568 0 0 0
1266 1 1 -0.2763 15.667410032409947 25.08594742202505 18.55689807973192 0 0 0
2850 1 2 -0.0632 19.298050000272298 26.360862481591557 18.38903759396145 0 0 0
6024 1 2 -0.2763 11.323365557351183 27.088919319748126 13.733023529895975 0 0 0
1820 1 6 -0.0632 19.559185744083532 29.99988970427236 17.03546378183189 0 0 0
2856 1 6 0.0078 18.332069628965844 31.491539235853292 19.616302192846717 0 0 0
1821 1 1 0.0896 11.669243572065039 29.10762020947671 20.06049267417966 0 0 0
1273 1 6 -0.2763 16.677494544844716 26.326320922066547 14.71748112341202 0 0 0
1822 1 1 -0.0801 11.509847575544722 30.003159365363935 18.99272224691648 0 0 0
1271 1 11 0.1829 16.89581790889524 25.391309416293208 15.04805681258129 0 0 0
807 1 2 0.0839 12.822589415643577 30.57957282297465 14.287305286703912 0 0 0
2848 1 1 -0.0632 18.4476155590022 29.42069867231383 19.705220149948723 0 0 0
6018 1 1 0.0839 10.735379896215226 25.350193517012475 16.620941465228206 0 0 0
1823 1 1 0.0866 10.221542395050745 30.28111331713783 18.486474223982725 0 0 0
1829 1 2 0.0078 10.149353467570286 30.94668115311157 17.630330238641566 1 0 0
6019 1 1 -0.0632 9.775211853875847 25.569217983294376 13.993227926236065 1 0 0
803 1 1 -0.2763 9.73788676415964 29.422712835543457 15.272564284644664 1 0 0
799 1 1 -0.0457 9.52771432508689 31.189128702932727 13.629771943852138 1 0 0
6482 1 1 -0.0531 14.350515868924848 16.852585897350302 21.7629999307173 0 0 0
6483 1 1 0.2266 14.528941938264037 15.436252420480388 21.496725872120457 0 0 0
6488 1 2 -0.0801 13.642692871184249 14.813318680275508 21.428131491312847 0 0 0
293 1 6 0.2266 17.961325062232554 13.175122008255798 20.753877705185165 0 0 0
6491 1 10 -0.2763 15.906771463309568 13.189678204895403 20.999698851401064 0 0 0
6493 1 4 0.0277 11.944288049416302 16.73537658259823 21.80604724307166 0 0 0
291 1 11 0.0896 17.155357880428262 12.547263268767585 20.688036827915532 0 0 0
6492 1 10 0.0871 12.882418458115952 17.50590541218981 21.887704717218867 0 0 0
6486 1 1 0.1829 15.793327384120365 14.733013489965977 21.371085923710602 0 0 0
6495 1 4 0.2266 14.870778871844928 12.57669478579415 20.82489795267485 0 0 0
6481 1 1 -0.0632 15.585733816481865 17.545639491695216 21.93758498901489 0 0 0
6485 1 1 0.1829 16.946097973061292 15.495229008606453 21.65056673369215 0 0 0
1050 1 6 0.0872 13.38808182360037 12.329910382518275 23.440428382664386 0 0 0
6518 1 2 0.0871 11.460305701779632 13.056983454506115 22.50697257567766 0 0 0
1041 1 1 0.0872 16.35340499892184 12.70617769602551 24.906143475436636 0 0 0
2501 1 2 0.0866 17.101839686791227 16.994621753851227 25.13834438378433 0 0 0
1048 1 2 -0.043 16.540634136963092 13.724619391190894 24.602163960609797 0 0 0
1074 1 11 0.0866 18.967602040371595 16.886933565885172 27.90147989299163 0 0 0
1078 1 6 0.0866 19.335266717234596 15.960883505981283 27.73235551718357 0 0 0
6521 1 10 0.0866 13.200964717204291 14.089922983950343 24.53253011888343 0 0 0
5681 1 10 -0.0632 19.38281093294872 13.620171034469191 25.607369989625575 0 0 0
1040 1 1 0.0277 17.44783321578748 11.941145428426998 25.42916972269149 0 0 0
1049 1 6 -0.0632 19.470334510104507 11.587659341718428 25.666953159237405 0 0 0
2500 1 2 -0.3506 15.149662327219247 17.424501300485584 26.636083118934398 0 0 0
1047 1 11 -0.2514 18.81577986750914 12.354346577320266 25.536786469874016 0 0 0
6516 1 1 0.0866 11.72044549864512 14.49318860697797 24.101570058181125 0 0 0
6525 1 4 -0.0801 13.791239523804117 14.813932893680759 25.31621318188896 0 0 0
6515 1 1 0.0872 11.003426109751787 15.542040833863103 24.785209436659684 0 0 0
1042 1 1 -0.043 15.04621923280543 12.142366628079218 24.708099570324062 0 0 0
5685 1 4 -0.0521 18.724852250432676 14.639094103661195 25.479200414903126 0 0 0
1496 1 2 0.04 20.36827395604205 12.104382736125858 23.16559003368472 0 0 0
1046 1 11 -0.0632 13.857301998041558 12.861420190498627 24.15931127953072 0 0 0
6519 1 2 -0.2623 11.549047892766126 16.13199404364181 25.514467156146143 0 0 0
6490 1 10 0.0078 18.146641420412514 17.614188441007553 22.368675911313954 0 0 0
6484 1 1 0.0866 16.859546096759438 16.884079719936473 21.972062236153093 0 0 0
6513 1 1 0.2765 10.962603681936532 13.806756553211597 23.103244631442475 0 0 0
6489 1 2 -0.2763 17.895299602612436 14.939270836905518 21.6606228237318 0 0 0
6494 1 4 -0.2763 19.223172573792375 17.235034208440517 21.930445822950063 0 0 0
2897 1 6 -0.2514 10.016418301855369 16.546627361099528 27.06255049195735 1 0 0
2253 1 6 0.0871 9.921165644563729 11.46241019678849 22.402142590951456 1 0 0
6514 1 1 -0.0531 9.596587703189217 15.79726542826723 24.6077802952026 1 0 0
1039 1 1 -0.0531 14.954335112378383 10.740575260168265 24.971246436882446 0 1 0
6512 1 1 0.0872 9.559188435819596 13.983253562531496 22.89648067219251 1 0 0
1037 1 1 0.1829 17.243559013178515 10.611012219214608 25.799851854488836 0 1 0
1373 1 1 -0.0632 20.03171518123602 21.31692163256699 20.982704000138902 0 0 0
43 1 1 0.0896 11.120857613057714 20.80791262111203 21.27570246962843 0 0 0
55 1 6 -0.0483 13.313052487431301 19.5305019877545 21.874847984859684 0 0 0
53 1 11 -0.2763 12.537240297851106 18.90724004200809 22.07046434821023 0 0 0
2495 1 1 0.2886 16.58567187388783 17.94959946231432 25.09180557919535 0 0 0
2496 1 1 -0.2514 15.230029610565936 20.450867787608402 24.990135696270528 0 0 0
1067 1 1 0.0078 19.424481924584097 19.109116327439025 26.764419541228282 0 0 0
2502 1 11 -0.0801 18.12656748950565 18.614131059437266 23.3580716225146 0 0 0
1070 1 1 0.2266 19.854063785548178 17.90188063678638 27.369923470785455 0 0 0
6487 1 2 -0.0531 15.564311542096444 18.616348953341852 22.091312550201227 0 0 0
2494 1 1 -0.0091 15.477347039754994 18.183559061540304 25.91918784175638 0 0 0
2493 1 1 -0.0801 14.788224243644708 19.40539606067765 25.830168847213525 0 0 0
2499 1 2 0.0866 13.882339895281667 19.52517058674467 26.408640187115783 0 0 0
2498 1 1 -0.0632 17.04482974389042 18.949149205040086 24.226375817976805 0 0 0
2506 1 6 -0.2514 19.032403993789533 18.9677831677037 23.673617491225034 0 0 0
2503 1 11 -0.0645 14.416429908682954 21.650564255206266 24.95743491270293 0 0 0
1073 1 2 -0.0521 18.413795087228145 19.477681694413185 26.91018717392307 0 0 0
46 1 1 -0.0632 11.238494467131934 19.683813206326462 22.137778932858655 0 0 0
2504 1 2 -0.0632 16.79438135363506 20.989601666969794 23.559850226300306 0 0 0
2497 1 1 -0.2514 16.40826740307808 20.221810152800074 24.223077451416138 0 0 0
1072 1 2 -0.0632 19.93901503293984 20.73203392213105 25.409532682134778 0 0 0
1066 1 1 -0.0632 20.278715817359295 19.81151785929717 25.885856607051796 0 0 0
1374 1 1 0.0866 20.412241047526116 21.33880001767767 22.324983032314755 0 0 0
1380 1 2 0.1829 20.138667325172904 20.48867011874121 22.950229724847603 0 0 0
4679 1 4 0.0278 17.26765351725117 24.218885456096395 20.734683188054497 0 0 0
6340 1 10 -0.2623 14.154460143986286 22.568875240545868 23.924783152994767 0 0 0
2127 1 6 0.0839 10.853961866104004 23.871664130127247 27.66684395376464 0 0 0
6339 1 2 0.2266 12.222565519589532 23.048866752374476 25.92347173111528 0 0 0
6334 1 1 0.0866 13.059455615024573 23.636300870690654 24.03334407999208 0 0 0
6335 1 1 0.0078 12.129616186432562 23.75587662358083 25.108864907101157 0 0 0
6344 1 4 -0.2763 14.745138557659796 22.470924957105943 22.865514736152736 0 0 0
3828 1 4 0.0839 19.70662146816681 24.624501101641886 27.533218738825354 0 0 0
6331 1 1 0.0278 12.942406292195296 24.52826531484103 22.936064193329155 0 0 0
6336 1 1 0.0586 11.069301045748123 24.72321794260225 25.07856070924468 0 0 0
6337 1 2 0.0839 13.650032073790094 24.440731434739764 22.112029142154256 0 0 0
2505 1 6 0.1829 13.839429401774556 21.723593233488938 25.772644792954576 0 0 0
2896 1 2 0.0873 10.95200975613027 18.57792773646977 27.977857367019 0 0 0
6341 1 10 -0.0531 9.93499688702038 24.903463166145436 26.133855571585467 1 0 0
44 1 1 0.0871 10.008714978503145 21.679264687799495 21.30515427819688 1 0 0
47 1 1 0.0873 10.123124117836186 19.539500898592898 23.066062982406883 1 0 0
2125 1 11 -0.0632 10.026189013440105 24.41121883111165 27.452021425865823 1 0 0
54 1 2 -0.0645 10.094605951226095 18.676635292363247 23.714403642695434 1 0 0
4675 1 10 0.0277 16.681931905407364 25.28925412051288 20.799062075360304 0 0 0
6342 1 10 0.0866 11.836816616298169 26.435116625514507 21.638816156114313 0 0 0
2847 1 1 -0.0496 19.192768107881555 29.325886517413256 20.899041705627962 0 0 0
2854 1 2 0.0873 19.181645491779445 30.153426409012624 21.594651384758723 0 0 0
2846 1 1 0.1829 19.967043190619858 28.178125733615484 21.18692427061096 0 0 0
6343 1 4 0.2266 12.658054809898433 26.346080156238717 20.735577920278544 0 0 0
4672 1 2 0.1829 15.28505878283582 27.59702451891404 21.462444383073578 0 0 0
1831 1 11 -0.2514 10.77816927935921 27.362413669199604 21.56124287391577 0 0 0
3823 1 2 0.3852 17.264552803002303 25.139710317294604 26.90857908298949 0 0 0
2283 1 1 0.0866 19.750354162424067 31.031810584292675 25.5312771371734 0 0 0
2293 1 11 -0.0632 18.615080888119337 31.313555358539155 27.66954516331835 0 0 0
4678 1 4 -0.0632 16.119020806346104 30.573625077660303 23.999656687100078 0 0 0
6333 1 1 0.0896 11.0068218964575 25.570732007731827 23.932989277161923 0 0 0
3830 1 4 0.0078 14.459436445736664 26.454365984172615 25.381796374473797 0 0 0
2367 1 1 -0.0531 10.370827034297466 30.182651624058753 24.381420681284865 0 0 0
3825 1 10 0.0866 17.53166306759481 30.457030631272055 27.836236552634887 0 0 0
4682 1 9 -0.2514 14.14640734130858 30.56694925287757 22.944920087627153 0 0 0
2286 1 1 0.1829 19.800063504981534 31.07009764110556 26.93528179878343 0 0 0
2058 1 6 0.0278 13.273764136497356 25.680871190817985 27.440619970333564 0 0 0
2054 1 11 0.0872 14.177637902899688 26.099654871143198 27.620937680622085 0 0 0
2368 1 1 -0.0801 10.833190686384937 29.603718341557112 25.57465881343152 0 0 0
2289 1 2 -0.2763 18.829247010397808 31.296314912323673 25.013628350011142 0 0 0
4671 1 1 0.0871 18.599546221168502 27.196513093679197 23.44612640880019 0 0 0
2374 1 2 0.2886 11.898690427413275 29.392162155726012 25.664557730887115 0 0 0
6332 1 1 0.1829 11.922330100434477 25.50170701738043 22.85584442647152 0 0 0
3585 1 2 -0.2514 13.74155469424281 31.87483070429205 27.51895732819493 0 0 0
4666 1 1 0.2266 16.1752282203394 27.44870554336666 22.067619819869794 0 0 0
4669 1 1 0.0277 16.97902276266451 26.302759826134746 21.864533927827786 0 0 0
3827 1 12 -0.0802 19.7453846240962 25.82700723101293 27.735729273594806 0 0 0
3816 1 1 -0.3506 18.70308864621396 28.161598788981763 27.62673453325227 0 0 0
3817 1 1 -0.0801 18.601441431890738 26.762730049720126 27.43213747977751 0 0 0
3818 1 1 -0.0091 17.377708614552777 26.218527741228343 27.004701568787958 0 0 0
3819 1 1 0.1829 17.605800348577592 29.017141303246234 27.379530641835686 0 0 0
3820 1 1 -0.2514 16.427606707409506 28.44881748977104 26.86842852297188 0 0 0
3821 1 1 0.0586 16.282026433580743 27.059045883400795 26.758259240683312 0 0 0
3824 1 2 -0.043 15.558880270343556 29.07939313584448 26.703244490540246 0 0 0
3826 1 10 -0.043 14.921575646104701 26.489342802801538 26.508664742044687 0 0 0
4673 1 2 0.2765 18.10435162078742 29.05786535532244 24.380885034549273 0 0 0
4668 1 1 -0.0521 17.738058477050828 28.257358452782967 23.74367664993311 0 0 0
4681 1 7 -0.0531 14.579309054975925 29.77460821561072 22.58748767954772 0 0 0
4670 1 1 0.2266 18.1807829431549 26.174695994829147 22.575950922650183 0 0 0
4676 1 10 -0.2763 20.057087459568162 27.469532875076872 23.59671920475039 0 0 0
4677 1 12 0.2266 15.742638514343364 29.676036045848186 23.26249116325469 0 0 0
4667 1 1 0.0871 16.53879471597235 28.420620935812867 23.029485647089093 0 0 0
2373 1 2 -0.0496 11.079058667361338 30.390701595300033 23.579309714066774 0 0 0
2375 1 2 0.0587 10.349414208283243 28.933469791965553 27.564190104096657 0 0 0
4674 1 2 0.04 18.88793552405679 25.398399564403302 22.297788513733984 0 0 0
2369 1 1 -0.0632 9.938702176603257 29.336859913413434 26.641480944737694 1 0 0
1833 1 6 0.0277 10.082416068835125 27.330010180756556 22.29394569654166 1 0 0
6338 1 2 -0.0507 10.214170398900178 26.307125339643786 23.87645390007183 1 0 0
265 1 6 -0.043 15.739598304608409 10.783538450874373 29.498638842274946 0 1 0
6234 1 2 0.3852 14.679596367175213 12.394674823522022 28.900006369616722 0 0 0
6239 1 4 -0.0632 12.51182182619785 15.815431468737753 28.710472113464668 0 0 0
6233 1 2 0.0896 18.562802801913946 14.326472371543975 28.76248829338985 0 0 0
6240 1 4 -0.2514 18.657292491889336 11.745208102137887 28.87256812073858 0 0 0
2729 1 6 -0.2763 12.431909409852027 12.727733066110192 29.285260853908845 0 0 0
6235 1 10 -0.043 12.951850940798057 14.69777738435867 28.92141486686505 0 0 0
2915 1 1 -0.2514 18.594238160701554 15.161434232999845 31.787702216647933 0 0 0
6237 1 10 -0.0531 17.67556238460381 16.957195235975416 28.465682238674198 0 0 0
2914 1 1 -0.0507 17.468832174752173 15.96336907561685 32.059797242316556 0 0 0
6230 1 1 0.0078 15.269550171317253 13.295501821474735 28.91464021226418 0 0 0
2913 1 1 -0.379 16.246127788427952 15.389775477431394 32.4994159352804 0 0 0
6228 1 1 -0.0531 17.471852147758852 14.376612103863986 28.793789363496575 0 0 0
2921 1 2 0.0278 19.49648784365341 15.633200735345286 31.39679627477014 0 0 0
2918 1 1 0.0277 18.51499782230906 13.76216773381459 31.99184249274914 0 0 0
2727 1 11 0.0277 11.987646628533232 13.634155070749566 29.168820726300225 0 0 0
6236 1 10 0.0078 17.448604654370023 11.803389538331396 29.02815178487664 0 0 0
6231 1 1 -0.2763 16.70691657355921 13.172991606459961 28.925804707162694 0 0 0
2922 1 11 0.0278 19.64850019808555 12.860007439126493 31.8288539776171 0 0 0
6226 1 1 -0.0507 15.419566096906069 15.697564710924798 28.80520617596448 0 0 0
6227 1 1 0.0078 16.85340898629125 15.652858186358088 28.69742432997972 0 0 0
6229 1 1 -0.0092 14.556239758569825 14.540456906174127 28.898457051753095 0 0 0
6232 1 2 0.0896 14.966758227387583 16.683642139162522 28.755230507179444 0 0 0
3643 1 4 0.0866 14.218259696040727 11.818428209079952 31.61772713873768 0 0 0
2926 1 6 -0.0496 19.582090811148 12.049616813815415 32.425428909748575 0 0 0
2920 1 2 -0.0531 17.539848343182996 17.040712129056313 31.892124672494326 0 0 0
2720 1 1 0.0866 10.476771321057253 13.469275960327131 29.231149546182216 0 0 0
3630 1 1 -0.0483 10.841115940120801 12.031089473094909 35.15851815692017 0 0 0
3639 1 10 -0.2763 13.853386111836018 12.395228998314142 32.626055851503324 0 0 0
3631 1 1 -0.0632 12.108654619496562 12.312469331931199 34.57212652388787 0 0 0
2916 1 1 0.2266 16.069575878408493 13.977575689394664 32.64814524872878 0 0 0
3634 1 1 0.0078 12.418652942376777 11.981014507881422 33.236149634901516 0 0 0
3636 1 2 0.0871 12.886880884757302 12.7623085791223 35.179599933987284 0 0 0
2860 1 1 0.0896 15.084641104143582 17.580637488252535 34.75168816867878 0 0 0
4130 1 2 -0.0801 20.200803386657995 14.832536279919035 34.40992624084716 0 0 0
2861 1 1 0.0839 13.719684597615334 17.18459283231793 34.54455079073796 0 0 0
2866 1 11 0.1829 11.597155935288688 15.765909297204724 35.05466444090494 0 0 0
2923 1 11 0.0871 14.756997850389592 13.422287044626767 33.134298594175725 0 0 0
5940 1 4 0.0839 11.302700287347843 15.800271065966536 32.8058035740325 0 0 0
3633 1 1 -0.043 11.357585022146536 11.206127647564557 32.56179282569212 0 0 0
2925 1 6 0.0586 14.406220056035096 13.96516176878635 33.91297857882639 0 0 0
2924 1 2 0.0896 17.24689510655961 12.150827731556962 32.62868614214057 0 0 0
5936 1 10 -0.2514 10.728513450061367 15.705285512343561 33.878257206391645 0 0 0
2917 1 1 -0.0632 17.265424820406157 13.214231357568144 32.436755202984784 0 0 0
4135 1 4 -0.0801 18.700245342752485 11.50827835946295 34.91950048934916 0 0 0
2919 1 2 0.0278 15.41320768810679 16.0622298123927 32.65118634731333 0 0 0
2868 1 2 0.0839 13.151344516909331 17.766811653436065 33.83134534203403 0 0 0
3629 1 1 -0.0632 9.79777860960251 11.435570801536565 34.396434127689766 1 0 0
2717 1 1 0.1829 10.001160506871187 12.130670463847324 29.12972372773687 1 0 0
2723 1 2 0.2765 10.719923424321376 11.335498697567418 28.995562674818263 0 1 0
3632 1 1 0.0078 9.990853611159698 10.971745014604888 33.075767082299905 1 1 0
3637 1 2 -0.2514 11.60338686206464 10.783334549892471 31.589789609351058 0 1 0
263 1 11 -0.0801 16.72106410030938 10.62741262519144 29.325279575412203 0 1 0
2862 1 1 0.2266 13.07208071425254 16.10226334761034 35.23056921306278 0 0 0
2728 1 2 -0.0632 9.63005190632439 15.479197248056277 29.542825317129758 1 0 0
4636 1 1 -0.0632 13.801672428900076 20.677354467653323 31.871362108523694 0 0 0
4644 1 4 -0.0802 18.56965050540879 20.996018859100182 30.23461132229613 0 0 0
4635 1 1 0.0872 13.663715175107804 21.007871162371305 30.49949735932233 0 0 0
2894 1 11 -0.2415 11.122219106312643 20.13304019493143 30.198480070899855 0 0 0
4632 1 1 0.0866 14.903450732089263 21.40594706548072 29.86406496012608 0 0 0
6238 1 4 0.2266 17.167396109688557 18.0492216062564 28.658948362978524 0 0 0
4634 1 1 0.0866 16.24998848346852 20.817406611204646 31.822237885121226 0 0 0
4633 1 1 0.0896 16.187770937178925 21.274464293202865 30.495629427969853 0 0 0
2898 1 6 0.0077 11.270948947419427 19.661276081424234 31.08097721743324 0 0 0
4641 1 10 -0.0801 12.27965420573921 20.878009045543287 29.72619501217019 0 0 0
4639 1 2 0.0587 17.216800317690513 20.68617980538129 32.31680090628216 0 0 0
4645 1 4 0.1829 12.233038456906357 21.37165867754514 28.611610950509235 0 0 0
4638 1 2 0.0078 14.897003337965929 21.77032909065481 28.84214279540523 0 0 0
4643 1 12 -0.0632 17.53261252480864 21.486276886587955 29.812848339909163 0 0 0
6326 1 10 -0.0632 19.376921672740732 20.99849180652348 34.66092337780939 0 0 0
6330 1 4 0.0872 18.747184347629776 19.96318932029188 34.77720153773054 0 0 0
2890 1 1 -0.0632 9.871601176408092 19.654763463323842 29.501476420130338 1 0 0
1508 1 11 -0.2514 20.41644304613668 21.135713122538686 33.74128600937124 0 0 0
4642 1 10 -0.2623 15.10115015006643 19.928021970134463 33.892259396779416 0 0 0
2869 1 6 0.0278 16.343447627183124 18.38453316936893 33.28916351666558 0 0 0
4637 1 1 0.2266 15.06321101662445 20.523435957872692 32.508782581709966 0 0 0
2867 1 11 0.0872 15.655063890846783 18.653827750068395 33.986976160890954 0 0 0