LAMMPS data file via write_data, version 29 Oct 2020, timestep = 492

6505 atoms
6902 bonds
10734 angles
18821 dihedrals
0 impropers

14 atom types
18 bond types
23 angle types
42 dihedral types

9.512286 53.735614 xlo xhi
10.580600 53.752614 ylo yhi
5.981400 64.665814 zlo zhi

Masses 

 1  12.0100000 
 2   1.0080000 
 3  12.0100000 
 4  16.0000000 
 5  14.0100000 
 6   1.0080000 
 7  16.0000000 
 8  14.0100000 
 9   1.0080000 
 10 12.0100000 
 11 14.0100000 
 12 12.0100000 
 13  1.0080000 
 14 16.0000000 


Pair Coeffs 

 1  0.0860000 3.3996695 
 2  0.0150000 2.5996425 
 3  0.0860000 3.3996695 
 4  0.2100000 2.9599219 
 5  0.1700000 3.2499985 
 6  0.0157000 1.0690785 
 7  0.2104000 3.0664734 
 8  0.1700000 3.2499985 
 9  0.0000000 0.0000000 
 10 0.0860000 3.3996695 
 11 0.1700000 3.2499985 
 12 0.0860000 3.3996695 
 13 0.0157000 1.0690785 
 14 0.2104000 3.0664734 


Atoms

1 1 1 -0.2415 20.914500 15.225886 19.757700
2 1 6 -0.0531 15.809000 18.154886 13.493300
3 1 2 -0.0531 19.062300 12.583686 18.775400
4 1 1 0.1829 18.543600 11.637286 18.952000
5 1 8 0.0866 16.603600 15.436000 54.113600
6 1 2 0.0078 20.177400 15.076386 20.558300
7 1 1 -0.0531 14.529900 16.749286 21.751700
8 1 1 0.2266 14.671300 15.351686 21.601300
9 1 2 0.0278 20.528600 14.647986 12.011286
10 1 2 -0.0801 13.790700 14.784086 21.559500
11 1 1 -0.2415 11.660100 18.296600 17.364500
12 1 1 0.0839 21.094200 16.189386 13.293886
13 1 12 0.0400 21.822000 12.121286 54.031700
14 1 1 0.0866 11.724086 13.689886 14.509800
15 1 1 0.0866 20.654000 15.413786 18.355100
16 1 4 0.0839 18.184800 15.337686 18.520100
17 1 2 0.0839 53.631900 15.011686 16.157700
18 1 1 0.0277 12.836086 12.153486 16.586000
19 1 2 0.0871 14.457400 14.921886 14.016900
20 1 2 -0.0092 12.619700 20.923186 20.292400
21 1 4 -0.0521 18.452900 20.626300 18.580600
22 1 1 -0.0632 20.058900 21.366100 20.993000
23 1 6 0.2266 18.078000 13.307186 20.816100
24 1 4 0.2765 17.912600 19.018900 13.614900
25 1 2 -0.0521 20.776200 18.588800 18.859100
26 1 1 -0.0531 17.219400 14.142286 15.659000
27 1 1 -0.2514 21.732400 15.623286 17.505200
28 1 1 0.1829 17.739000 15.413986 15.807800
29 1 1 0.0839 17.114400 16.535686 15.334300
30 1 1 -0.0632 15.859200 16.399886 14.678500
31 1 10 0.0866 19.180800 15.325086 17.823100
32 1 1 -0.0632 18.738900 20.804200 15.732000
33 1 1 0.0839 21.714400 19.097800 18.612100
34 1 8 -0.0801 15.191600 17.499186 14.041700
35 1 11 -0.2763 18.981900 15.471486 16.480800
36 1 2 -0.2763 17.577300 17.464386 15.561000
37 1 2 0.0078 21.496300 15.890886 16.474000
38 1 10 0.2886 19.120800 21.527700 18.076500
39 1 1 -0.2415 13.787786 16.993586 18.461900
40 1 2 -0.0521 11.708286 17.778700 12.240486
41 1 2 -0.2763 14.686786 16.518286 18.920700
42 1 2 -0.3790 14.977886 18.627586 17.781400
43 1 1 0.0872 12.790486 11.604786 15.274800
44 1 4 0.1570 12.018086 12.747286 19.107500
45 1 1 0.1829 15.348100 15.120986 14.513100
46 1 1 -0.2763 12.320786 12.424286 14.245500
47 1 6 0.1829 19.694000 15.831386 15.835500
48 1 1 0.0278 18.669900 21.130600 14.388400
49 1 2 -0.2763 13.257486 11.528186 17.299500
50 1 10 -0.2763 15.948700 13.182586 21.131000
51 1 4 0.2765 15.041700 13.898100 54.278700
52 1 1 -0.0632 13.955586 18.199486 17.808800
53 1 2 0.2765 15.654200 12.969786 14.738800
54 1 4 0.0277 12.030700 16.912086 21.786900
55 1 2 -0.2514 18.778700 19.785800 16.023600
56 1 11 0.0896 17.257000 12.734586 20.778000
57 1 2 -0.2415 13.045400 19.845300 16.707100
58 1 2 0.0872 17.739300 13.296886 16.059000
59 1 1 -0.0801 12.923200 18.893000 17.222500
60 1 2 -0.2514 15.217586 20.074100 13.318686
61 1 1 0.0896 11.934100 20.866186 21.101600
62 1 1 0.0077 12.571586 16.309086 18.276000
63 1 1 0.0896 21.200900 14.912586 12.844886
64 1 12 -0.2514 18.633100 19.980900 13.392100
65 1 6 0.0896 16.598400 15.484800 55.112900
66 1 2 0.0586 12.339186 12.043386 13.274900
67 1 2 0.3852 21.484800 18.678900 16.453900
68 1 1 -0.0531 16.044600 13.995786 14.995500
69 1 1 -0.2763 12.237086 13.386386 16.917100
70 1 10 0.0078 12.154886 13.747186 18.387700
71 1 2 0.1829 20.293100 16.877486 12.999286
72 1 6 -0.0430 12.522386 15.044886 19.928100
73 1 11 0.0078 12.366386 15.009486 18.923900
74 1 2 -0.2514 19.530100 20.517200 20.641300
75 1 1 0.2266 21.908300 12.814286 21.607400
76 1 1 -0.0632 17.610700 11.543086 20.061600
77 1 1 -0.0430 11.659086 14.098286 15.850800
78 1 10 0.0871 13.143300 17.475586 21.765300
79 1 1 0.1829 15.949900 14.688786 21.546000
80 1 1 -0.0645 11.433686 17.039786 17.881300
81 1 4 0.2266 14.948500 12.536986 20.913800
82 1 1 -0.0632 15.751600 17.479186 21.835400
83 1 6 -0.0483 13.958400 19.377686 21.411900
84 1 11 -0.2763 13.173500 18.866886 21.796800
85 1 1 0.1829 17.123000 15.414586 21.703600
86 1 2 0.3852 15.016300 12.584100 28.689300
87 1 4 -0.0632 12.825300 15.947300 28.599100
88 1 1 0.2886 16.688400 17.964386 25.140500
89 1 6 0.0872 13.627300 12.492200 23.541500
90 1 2 0.0078 21.038600 15.931400 25.138900
91 1 1 -0.2514 15.265400 20.385086 24.913000
92 1 2 0.0871 12.264800 13.103500 22.585700
93 1 1 0.0872 16.603600 12.780800 24.845300
94 1 2 0.0866 17.211300 16.962286 25.337200
95 1 2 0.0896 18.840000 14.497100 28.807300
96 1 1 -0.0632 14.066200 20.912500 31.977600
97 1 2 -0.0430 16.817800 13.821700 24.581000
98 1 1 0.0078 19.429900 19.206400 26.739800
99 1 2 -0.3790 21.312100 21.640100 31.410500
100 1 11 -0.0801 18.163300 18.580386 23.286600
101 1 1 0.2266 19.909300 18.012100 27.378300
102 1 1 0.2266 21.585900 19.396800 25.534100
103 1 4 -0.2514 18.807800 11.916400 28.864400
104 1 10 0.2266 20.855300 13.241700 31.068800
105 1 11 0.0866 19.035100 17.009400 27.970800
106 1 6 -0.2763 13.368800 12.972200 29.375900
107 1 6 0.0866 19.376500 16.106000 27.660900
108 1 10 0.0866 13.885600 14.216200 24.652300
109 1 10 -0.0632 19.381500 13.796000 25.488700
110 1 2 -0.0531 15.695400 18.537486 22.053800
111 1 1 0.0277 17.596600 12.027100 25.477300
112 1 10 -0.0430 13.366900 14.919700 28.873100
113 1 2 -0.2514 20.961700 11.891900 26.730800
114 1 6 -0.0632 19.570400 11.721700 25.666800
115 1 2 0.2765 11.627200 53.732114 28.818700
116 1 2 -0.3506 15.024600 17.384586 26.440900
117 1 1 -0.0091 15.453500 18.139086 25.813200
118 1 1 -0.2514 18.718200 15.319100 31.743400
119 1 4 -0.0802 18.745400 21.010300 30.183000
120 1 1 -0.0801 14.805400 19.385586 25.795400
121 1 11 -0.2514 18.904200 12.492900 25.528500
122 1 10 -0.0531 17.797800 17.093800 28.527700
123 1 1 0.0872 13.971600 21.312500 30.625100
124 1 1 0.0866 12.490300 14.599800 24.129100
125 1 11 -0.2415 11.792300 20.239800 30.333000
126 1 1 -0.0507 17.546700 16.153400 31.976900
127 1 1 0.0078 15.531000 13.502700 28.811200
128 1 4 -0.0801 14.398200 14.821100 25.528300
129 1 2 0.0866 13.906000 19.527686 26.417100
130 1 1 0.0866 15.187700 21.701700 29.973700
131 1 4 0.2266 17.244200 18.167100 28.758200
132 1 4 0.2266 21.172000 14.156500 30.367400
133 1 1 -0.0531 20.864400 13.832200 25.793500
134 1 1 0.0866 16.483800 20.966000 31.938700
135 1 1 -0.0632 17.068900 18.893086 24.173800
136 1 1 0.0872 11.877900 15.727100 24.678300
137 1 1 -0.3790 16.382800 15.538000 32.501000
138 1 1 -0.0430 15.329300 12.228100 24.687500
139 1 6 -0.2514 19.015800 18.857086 23.602600
140 1 1 -0.0531 17.725400 14.592400 28.791600
141 1 11 -0.0645 14.509200 21.575586 24.910700
142 1 1 0.0896 16.407400 21.439000 30.619200
143 1 4 -0.0521 18.674300 14.760200 25.463600
144 1 2 0.0278 19.588200 15.673000 31.243700
145 1 2 -0.0521 18.443400 19.566300 26.897700
146 1 1 -0.0632 12.046800 19.754086 21.948000
147 1 2 -0.0632 16.864800 20.893186 23.484900
148 1 2 0.0400 20.397800 12.498386 23.198600
149 1 1 -0.2514 16.416000 20.149686 24.136900
150 1 1 0.0277 18.650400 13.903300 31.966100
151 1 11 0.0277 12.739700 13.706500 29.061000
152 1 11 -0.0632 14.304100 13.017100 24.113400
153 1 1 0.2266 20.897100 12.052586 22.315500
154 1 6 0.0077 12.067200 19.630700 31.084700
155 1 10 0.0078 17.587000 12.058000 29.000300
156 1 1 0.2886 21.352200 20.580300 31.666400
157 1 2 -0.0632 19.921000 20.727800 25.313600
158 1 1 -0.2763 16.933300 13.436800 28.920200
159 1 2 -0.2514 21.554200 16.817200 27.783000
160 1 10 -0.0801 12.778300 21.040300 29.751000
161 1 2 0.0587 17.348200 20.616200 32.424700
162 1 1 -0.2763 21.247400 17.613400 27.178800
163 1 2 -0.2514 12.356300 53.649514 31.555600
164 1 11 0.0278 19.775200 13.122100 31.898800
165 1 1 -0.0507 15.704900 15.936400 28.801000
166 1 1 0.0078 17.087300 15.825000 28.750900
167 1 1 -0.0632 20.261500 19.848300 25.805000
168 1 1 -0.0092 14.905000 14.779200 28.737300
169 1 2 0.0896 15.264000 16.914300 28.834800
170 1 1 0.0078 21.566300 12.726600 26.397400
171 1 2 -0.2623 12.426000 16.314400 25.434600
172 1 4 0.0866 14.634400 12.132400 31.588100
173 1 10 0.0078 18.174300 17.605986 22.318600
174 1 4 0.1829 12.621200 21.606800 28.640400
175 1 1 0.0866 20.451400 21.359700 22.308600
176 1 1 0.0866 17.013900 16.830386 21.921900
177 1 1 -0.0632 21.633800 15.004800 25.468700
178 1 6 -0.2514 53.724214 16.665000 26.768000
179 1 6 -0.0496 19.645200 12.233800 32.343500
180 1 2 0.0078 15.225000 21.960900 28.902400
181 1 2 0.0873 12.041000 18.658300 28.100200
182 1 12 -0.0632 17.705000 21.502000 29.798000
183 1 1 0.2765 11.758400 13.920900 23.153800
184 1 2 0.1829 20.122000 20.544900 22.941400
185 1 1 0.1829 21.606700 17.838600 32.434500
186 1 2 -0.0645 53.605714 18.797086 23.627500
187 1 2 -0.0531 17.564600 17.192800 31.754800
188 1 1 0.0866 11.340900 13.397100 29.203300
189 1 2 -0.2763 18.132900 14.989886 21.716400
190 1 4 -0.2763 19.231400 17.259486 21.859500
191 1 2 0.0839 17.238900 17.206900 35.902300
192 1 2 0.0278 21.418400 18.383186 41.846700
193 1 11 0.0871 20.471400 17.232800 38.399700
194 1 1 -0.0521 19.612300 15.327700 39.690900
195 1 10 -0.0632 19.505000 21.073000 34.740200
196 1 6 -0.0444 14.795886 19.583600 37.775900
197 1 1 -0.0483 11.667000 12.178300 35.270100
198 1 4 0.0078 14.364486 20.037700 40.851200
199 1 11 -0.0632 18.341200 13.286900 36.185200
200 1 10 -0.2763 14.332000 12.556500 32.637500
201 1 11 0.2765 21.512700 16.441900 32.822400
202 1 1 0.0866 15.595300 16.020100 36.622800
203 1 1 0.1829 20.667500 12.935700 35.185700
204 1 2 0.2266 17.933200 12.532400 38.739500
205 1 1 -0.0430 17.286786 19.531100 38.097700
206 1 1 0.0400 18.603186 19.903600 37.890500
207 1 4 0.0872 18.719800 20.148000 34.705300
208 1 1 0.0866 16.401686 20.389200 38.794900
209 1 2 -0.2514 17.076000 21.791100 35.274700
210 1 2 -0.0521 12.561786 19.718500 37.534800
211 1 2 -0.0507 16.915286 18.652500 37.678100
212 1 2 -0.2514 19.262986 19.373500 37.291100
213 1 1 0.0078 15.970200 13.984386 42.809400
214 1 1 -0.0632 12.783800 12.587200 34.654700
215 1 11 0.1570 15.006386 20.011900 38.728300
216 1 6 0.1829 20.706200 16.206500 33.274500
217 1 1 0.2266 16.384400 14.160000 32.722400
218 1 2 0.0401 12.105486 12.666700 42.064900
219 1 1 0.0078 13.060100 12.184200 33.330700
220 1 2 0.2765 16.255900 15.493100 37.364400
221 1 2 0.2266 20.052886 21.438700 38.272400
222 1 1 -0.0521 12.841786 17.541400 40.144600
223 1 1 -0.0632 19.017400 14.090800 39.789100
224 1 10 0.0278 14.160286 19.670100 39.738400
225 1 1 0.0896 11.410186 17.984500 37.752900
226 1 1 0.0871 18.528500 13.472000 38.615900
227 1 2 0.0871 13.621100 12.950400 35.303400
228 1 10 -0.2623 19.219200 12.474100 35.468300
229 1 1 0.0400 18.776800 13.997200 37.362000
230 1 1 -0.0531 19.423400 15.280800 37.249300
231 1 1 0.0278 19.753100 15.979300 38.414400
232 1 1 0.0896 15.301100 17.665600 34.898300
233 1 4 -0.0531 11.810700 13.537400 37.108100
234 1 1 0.2266 13.446400 16.192900 35.453900
235 1 2 0.1829 17.160500 18.557886 42.051800
236 1 11 -0.2514 20.444300 21.165000 33.740700
237 1 2 0.1829 13.552486 17.294300 41.015800
238 1 6 -0.0430 17.335600 13.289300 35.996400
239 1 1 0.0896 12.347386 18.903700 38.180400
240 1 2 -0.2514 20.458500 13.340386 42.872700
241 1 10 -0.2623 15.248300 19.909600 33.903100
242 1 2 0.2886 19.229400 18.055586 40.763200
243 1 2 0.0278 19.766200 15.862800 40.615400
244 1 2 0.2765 13.850900 14.872000 37.125800
245 1 2 0.0871 16.524800 14.285686 41.994400
246 1 2 -0.0801 20.105100 14.901600 34.423600
247 1 1 0.2266 13.070886 18.712700 39.348600
248 1 2 -0.0521 20.845900 18.565000 34.323100
249 1 1 0.0400 11.852686 16.593300 39.746800
250 1 1 0.0078 19.296700 18.382786 41.841100
251 1 1 -0.0801 21.067600 18.830100 33.297700
252 1 1 0.0839 13.941500 17.317500 34.770400
253 1 2 0.0839 13.290000 17.847200 34.096300
254 1 2 -0.0531 19.569700 15.790300 36.338200
255 1 6 0.0278 16.443100 18.388800 33.313200
256 1 2 -0.2514 18.779800 13.712500 40.803100
257 1 12 0.0896 11.380300 12.504800 36.683600
258 1 1 0.0839 16.147000 17.003000 35.771000
259 1 1 0.2266 15.262100 20.616900 32.577300
260 1 10 0.0872 21.423900 17.673400 37.432800
261 1 2 -0.0632 13.998200 14.187586 41.997600
262 1 11 0.1829 12.182800 15.731100 35.103000
263 1 11 0.0872 15.876900 18.697200 34.078700
264 1 1 -0.0531 19.053686 21.131000 38.442400
265 1 1 0.0866 14.250600 15.628500 36.473500
266 1 11 0.0871 15.089700 13.659600 33.163700
267 1 1 0.0078 20.899400 20.170300 32.889400
268 1 6 -0.2763 20.350700 17.821500 39.112600
269 1 4 0.2765 14.436200 20.312800 34.701600
270 1 4 0.0839 12.377800 15.818700 32.805100
271 1 1 -0.2514 20.534200 18.589386 42.433900
272 1 1 -0.0430 14.576700 14.019486 42.870500
273 1 4 -0.2514 11.867486 15.463400 41.886100
274 1 1 -0.0430 12.122800 11.445500 32.607200
275 1 6 0.0586 14.676600 14.244100 33.855900
276 1 1 0.3852 20.977800 14.230100 34.595100
277 1 2 -0.0801 12.883786 11.446386 38.736124
278 1 2 0.0896 17.284200 12.250800 32.641500
279 1 6 -0.0531 11.484500 15.606000 35.868800
280 1 10 -0.2514 11.698900 15.660000 33.771600
281 1 1 -0.0632 17.405300 13.316100 32.462100
282 1 1 -0.0521 18.134400 18.604186 42.539100
283 1 1 0.0872 16.865186 21.572100 39.352800
284 1 4 -0.0801 18.797400 11.428500 35.017400
285 1 2 0.0866 13.614186 53.738900 41.033104
286 1 10 0.0872 11.581186 15.397000 40.675500
287 1 1 0.0279 21.650500 11.963000 35.194100
288 1 2 0.0866 13.123200 20.636500 32.539400
289 1 4 0.0078 21.703200 16.937100 36.484000
290 1 2 0.0278 21.805400 19.008000 39.918200
291 1 2 0.0278 15.498600 16.086300 32.665000
292 1 2 -0.0531 12.805200 13.786186 43.948400
293 1 1 0.0839 14.472200 17.186800 44.280300
294 1 1 -0.2514 16.672600 13.705886 44.035400
295 1 7 -0.0632 14.176200 20.064486 50.311900
296 1 1 0.0078 14.524200 20.839186 45.319600
297 1 11 -0.0444 14.327000 15.711400 47.649200
298 1 4 -0.2514 14.148300 17.320000 49.356900
299 1 6 -0.0531 16.413500 20.183386 43.688700
300 1 7 0.2266 18.023900 12.311500 48.268100
301 1 4 0.0872 17.251100 18.804486 46.471700
302 1 12 0.0278 13.397200 20.730886 49.474300
303 1 4 0.2266 20.589900 14.569600 50.411400
304 1 2 0.0278 14.603300 20.660086 44.244400
305 1 1 0.0078 19.088100 17.904300 51.852600
306 1 1 0.0586 13.200700 11.975486 48.537500
307 1 2 -0.0801 18.986000 14.783400 53.108900
308 1 2 -0.2763 20.471700 16.507586 45.776600
309 1 2 0.2266 11.786886 14.774686 50.154944
310 1 1 0.0278 13.085500 21.599886 47.159600
311 1 11 0.0866 20.905600 16.297900 51.842400
312 1 2 0.0839 15.718300 15.984000 45.416500
313 1 10 0.2266 14.481900 16.223600 48.978700
314 1 10 0.0278 21.333300 15.283300 51.042600
315 1 4 -0.0521 15.250400 11.635286 47.443400
316 1 10 0.0866 14.167500 12.133386 47.374200
317 1 1 -0.0430 20.285700 14.792886 44.391800
318 1 9 -0.0531 14.868800 19.651786 49.813200
319 1 4 0.0871 18.643600 14.636086 46.180500
320 1 1 -0.0632 20.571300 18.964186 43.825300
321 1 1 -0.0801 13.266800 17.961100 44.269500
322 1 1 -0.2763 18.177500 19.127186 43.859700
323 1 6 -0.2763 11.929400 19.873400 45.690700
324 1 1 -0.2514 15.992400 13.383686 45.206800
325 1 1 -0.0531 14.602400 13.234386 45.160500
326 1 2 -0.0531 16.559500 13.073386 46.046000
327 1 1 0.0277 13.695400 11.584886 49.827400
328 1 11 -0.0091 11.465900 19.027800 45.453400
329 1 9 -0.2514 17.231700 12.761100 47.877600
330 1 1 -0.2514 11.817800 12.285186 48.390600
331 1 2 0.0866 11.365800 12.462586 47.424300
332 1 1 0.0866 17.044200 17.601300 53.043400
333 1 1 -0.0521 15.059200 20.139286 47.600000
334 1 1 -0.0510 16.563800 13.414300 51.613100
335 1 1 0.0871 16.879400 13.415400 50.232800
336 1 1 0.0896 16.168400 14.283800 49.386600
337 1 1 -0.3790 15.692200 14.427400 52.085400
338 1 1 -0.2763 15.053800 15.322800 51.203500
339 1 1 0.0078 15.263400 15.230300 49.853100
340 1 2 0.0400 19.528400 19.343086 45.556700
341 1 2 0.0400 16.314900 14.159100 48.285300
342 1 2 0.0871 14.421800 16.042900 51.582000
343 1 2 0.1829 16.084700 18.005300 53.343300
344 1 1 -0.0507 13.864700 20.763686 48.043300
345 1 12 0.0872 17.922300 12.524900 49.609900
346 1 1 -0.0430 17.467200 16.328500 53.344400
347 1 1 0.1829 13.895600 13.706686 44.018900
348 1 6 -0.0483 14.820800 14.846800 47.366200
349 1 11 0.0872 16.947000 19.650886 44.410200
350 1 1 0.0895 15.398600 20.183986 46.253200
351 1 1 0.0277 17.833200 18.332400 52.255900
352 1 1 -0.0531 21.704400 19.737000 48.108364
353 1 2 0.1829 17.454800 19.276800 51.908000
354 1 2 0.0078 12.758186 21.422600 10.224986
355 1 11 -0.0531 18.082900 13.819886 44.088100
356 1 1 -0.2763 13.338400 21.510086 45.815000
357 1 2 -0.0632 14.817500 11.454186 49.967500
358 1 1 -0.0801 12.766700 11.523886 50.925300
359 1 2 0.0871 19.755300 18.642200 51.330400
360 1 10 -0.2763 18.977500 14.368286 45.003100
361 1 2 0.0078 12.157600 17.371700 47.389100
362 1 11 0.0839 13.800400 12.885186 46.268200
363 1 2 0.2266 15.676200 19.695786 48.307400
364 1 6 0.0871 12.922400 13.339886 46.241100
365 1 11 0.0866 21.755200 18.994486 44.506900
366 1 1 0.2765 19.418400 19.205286 44.549300
367 1 1 -0.0531 19.559700 16.627200 52.193400
368 1 2 0.2266 17.031200 12.739100 52.322300
369 1 1 -0.0430 20.917200 15.995786 44.887200
370 1 1 -0.0632 14.771300 16.524200 45.487500
371 1 1 0.0896 12.467000 18.059600 45.380300
372 1 1 0.1829 13.890200 16.460500 46.524000
373 1 10 0.1829 16.556400 19.430586 45.728200
374 1 4 0.0277 18.665400 11.993100 50.369000
375 1 1 0.2266 18.680600 15.736400 52.862900
376 1 1 -0.2763 12.769400 17.255900 46.480300
377 1 1 -0.0802 21.807100 21.037200 48.714014
378 1 12 -0.0632 15.669100 14.637700 53.561000
379 1 2 0.0866 21.138600 19.521800 47.215554
380 1 4 0.0278 20.540086 11.394486 44.187144
381 1 6 0.0078 21.682600 16.876100 52.261100
382 1 4 0.0866 19.106200 21.182100 47.785124
383 1 1 0.1829 20.923700 14.156986 43.319300
384 1 1 -0.0496 11.437100 11.781686 50.729800
385 1 2 0.0078 15.144800 17.247300 43.373100
386 1 4 0.1829 12.678000 21.597286 50.019200
387 1 7 0.0839 20.367186 11.488686 46.416144
388 1 2 0.2266 12.993600 18.481000 43.337100
389 1 4 0.0866 20.713300 12.418886 53.678000
390 1 6 0.2266 18.386500 14.037186 43.161200
391 1 1 -0.0430 20.271786 26.943500 53.786400
392 1 10 0.0277 16.689300 25.289300 20.835100
393 1 1 -0.2763 16.327200 32.197900 18.181900
394 1 2 0.0872 15.600700 31.758400 16.223800
395 1 2 -0.2514 13.445600 30.388100 18.705300
396 1 1 0.1829 11.685500 26.581700 14.500386
397 1 1 0.0866 11.999000 26.553900 15.871686
398 1 1 -0.2763 15.296400 23.828600 16.072100
399 1 11 0.0277 20.391100 30.590000 17.050400
400 1 2 -0.3790 18.495900 22.609600 12.856400
401 1 2 0.0278 16.805500 26.440600 17.492400
402 1 1 0.0871 14.978900 23.850600 18.511900
403 1 1 0.0586 16.276700 25.559100 17.450500
404 1 2 0.0078 20.535800 26.125900 20.415800
405 1 2 0.0896 15.212000 23.363400 15.097900
406 1 1 0.0586 15.804000 32.528000 16.980400
407 1 2 0.0839 11.947200 25.282600 17.654486
408 1 11 0.0078 13.008300 28.914200 16.071186
409 1 1 0.0866 16.697986 28.467500 55.986900
410 1 2 -0.0507 14.665000 23.374600 19.491300
411 1 10 0.0866 12.226900 26.365486 21.608100
412 1 11 0.0871 15.835800 25.726600 19.831600
413 1 1 -0.0632 16.062800 24.942300 16.214400
414 1 1 0.1829 18.523700 22.454000 13.945700
415 1 1 -0.2763 19.674986 28.156800 54.177100
416 1 6 0.2765 13.710900 29.496500 16.662786
417 1 11 -0.0632 18.095186 30.385100 55.800100
418 1 2 -0.3790 18.119600 28.563300 17.692000
419 1 1 -0.2623 20.040800 27.084100 20.213500
420 1 11 -0.0531 17.846000 30.669700 19.322000
421 1 2 -0.2514 15.264786 26.861800 55.992800
422 1 4 -0.0521 13.559200 27.199500 17.386986
423 1 6 0.0278 15.517500 26.683900 19.921700
424 1 1 -0.3506 18.491600 28.335300 18.712900
425 1 2 0.0874 18.783186 28.529600 53.699600
426 1 10 -0.0531 12.889100 27.609400 16.476786
427 1 11 -0.2514 20.022700 22.397000 18.735600
428 1 6 -0.0521 17.694986 31.225600 56.199900
429 1 1 0.0866 11.904900 31.375500 13.463886
430 1 10 0.0872 21.557600 29.898700 16.808800
431 1 2 0.0078 16.393286 31.304200 54.140000
432 1 10 0.0078 17.870400 24.831000 14.387800
433 1 1 -0.2763 19.335900 27.214000 19.005500
434 1 4 -0.0430 18.454900 25.399100 13.485000
435 1 4 0.0871 16.106100 29.930500 18.059400
436 1 1 0.0278 12.686700 30.584800 14.294686
437 1 1 -0.0801 11.367500 28.496486 20.644100
438 1 2 0.2266 18.608900 31.876400 15.870000
439 1 1 -0.0496 19.123200 29.248200 20.908300
440 1 1 -0.2514 20.272600 31.942600 17.148500
441 1 4 0.0278 17.317800 24.220800 20.742900
442 1 10 -0.2763 16.647100 30.832800 18.620200
443 1 1 0.3852 12.128400 29.664500 15.150186
444 1 2 0.0873 19.083000 30.063600 21.616900
445 1 1 0.1829 18.463400 23.187500 16.225100
446 1 1 -0.0801 20.422500 22.414000 20.107300
447 1 1 -0.2763 15.632500 25.105900 18.608200
448 1 2 -0.0632 19.373900 26.417700 18.360200
449 1 2 -0.2763 11.948000 27.412800 13.927786
450 1 1 0.0871 18.342000 23.469700 14.880200
451 1 1 0.0866 14.721800 23.268500 17.242000
452 1 4 0.0896 20.101786 31.139900 56.242000
453 1 6 -0.0632 19.560000 29.974400 17.104000
454 1 6 0.0078 18.384400 31.490900 19.522600
455 1 1 0.0896 15.505386 27.845200 55.594700
456 1 1 -0.2763 14.624786 28.522500 54.705300
457 1 1 0.0871 14.875886 29.749000 54.180500
458 1 2 0.0078 17.337486 28.116500 56.735000
459 1 1 -0.0457 17.018786 29.625700 55.337000
460 1 10 -0.0632 19.438686 30.279900 55.680600
461 1 6 0.2886 20.639700 22.815500 18.065100
462 1 2 0.0277 18.355800 23.892500 17.035100
463 1 1 0.0896 12.521400 29.199886 20.213100
464 1 1 0.0872 21.205400 23.419700 20.625800
465 1 6 -0.2763 16.726800 26.322300 14.739800
466 1 1 -0.0801 12.513900 30.092900 19.119300
467 1 2 0.0277 13.422000 29.050186 20.808900
468 1 11 0.1829 16.809500 25.401100 15.052200
469 1 1 0.0871 21.399886 26.493500 54.482500
470 1 2 0.0839 13.715800 30.692700 14.223486
471 1 1 -0.0632 18.501700 29.413100 19.644400
472 1 1 0.1829 19.908900 28.125700 21.145500
473 1 2 0.0896 21.358400 24.228500 19.946000
474 1 1 -0.2514 20.128686 28.922000 55.248700
475 1 1 0.0839 11.664100 25.425200 16.595686
476 1 1 0.0277 16.114586 30.310300 54.544200
477 1 2 0.0866 13.626286 28.171400 54.604400
478 1 4 0.2266 12.995500 26.212486 20.675400
479 1 2 -0.2623 14.167500 22.339500 17.199900
480 1 2 0.1829 15.266000 27.503100 21.487900
481 1 1 -0.0632 21.343786 28.554300 55.807400
482 1 11 -0.2514 11.426300 27.463486 21.663900
483 1 2 -0.3506 12.355800 32.166100 12.899786
484 1 4 -0.3506 21.324500 28.730900 16.592800
485 1 2 0.0896 21.701886 29.176400 56.592200
486 1 2 -0.2763 21.654900 32.033300 18.661300
487 1 1 0.2765 18.758800 21.851700 16.647400
488 1 1 0.0400 21.633900 32.678600 21.782900
489 1 2 -0.2763 20.962000 32.679900 20.953600
490 1 2 0.3852 17.335700 25.145914 26.949300
491 1 2 -0.3790 14.092900 24.119914 29.472700
492 1 1 -0.0645 15.060300 25.151114 31.091200
493 1 1 0.0866 19.748900 31.053900 25.511700
494 1 11 -0.0632 18.577100 31.326300 27.629300
495 1 4 -0.0632 16.154700 30.637500 23.947700
496 1 2 0.1829 19.562900 30.485814 31.179700
497 1 4 -0.0430 18.125000 28.417614 30.776100
498 1 1 0.0896 11.518200 25.662086 23.970400
499 1 4 0.0078 14.518000 26.552914 25.358500
500 1 10 -0.2623 14.289000 22.339486 23.769800
501 1 1 -0.0531 11.587500 30.124500 24.326400
502 1 6 0.0839 11.890500 23.655186 27.277700
503 1 1 -0.0632 53.707214 29.284500 26.532800
504 1 1 0.1829 15.507700 26.421314 31.710200
505 1 1 0.0078 14.541300 25.097714 29.813600
506 1 10 0.0866 17.500600 30.472600 27.874100
507 1 1 0.0277 20.298500 26.328014 31.827700
508 1 9 -0.2514 20.503700 27.270700 28.389900
509 1 1 -0.0507 17.498700 30.672314 31.245700
510 1 9 -0.2514 14.172100 30.636500 22.910400
511 1 2 0.0586 15.108600 24.226614 31.682500
512 1 1 0.1829 19.790900 31.138300 26.966200
513 1 6 0.0278 13.324100 25.696914 27.394500
514 1 10 0.0866 21.936800 28.243814 31.135700
515 1 6 0.0872 21.095800 25.471400 22.388800
516 1 1 0.2886 14.883500 27.476614 29.560100
517 1 1 0.0866 14.531300 26.201314 29.034000
518 1 1 -0.0531 21.492700 23.506800 22.045400
519 1 1 0.2266 20.997000 30.924800 27.606800
520 1 11 0.0872 14.235400 26.110414 27.632400
521 1 1 -0.0801 12.008100 29.400400 25.440400
522 1 2 -0.2763 14.767400 28.346314 28.917900
523 1 2 0.2266 12.557000 23.015386 25.849600
524 1 2 -0.2763 18.873200 31.348100 24.886200
525 1 1 0.0871 18.594800 27.174500 23.438400
526 1 2 0.2886 13.002300 29.099700 25.491600
527 1 1 0.0278 21.202500 22.422900 22.878200
528 1 1 0.1829 12.263900 25.436986 22.810800
529 1 1 0.0866 13.342000 23.435486 23.885400
530 1 2 0.0896 15.377400 31.463314 31.429600
531 1 7 -0.0531 17.736900 22.214200 28.675500
532 1 2 -0.2514 13.758800 31.546700 27.293700
533 1 1 0.2266 16.166300 27.441300 22.132700
534 1 1 0.0078 12.542900 23.655686 25.019200
535 1 10 0.0871 17.210800 29.176614 31.166800
536 1 1 0.0277 16.927600 26.287200 21.916100
537 1 2 0.1570 19.623400 28.596500 28.098100
538 1 4 0.1829 16.476400 30.995400 28.289500
539 1 4 0.2266 20.625100 27.427100 24.767200
540 1 1 -0.3506 16.514800 31.665714 31.370000
541 1 1 0.0078 15.427000 27.569514 30.858100
542 1 12 -0.0802 19.752200 25.781800 27.687400
543 1 6 -0.0496 15.231700 29.405514 31.663700
544 1 4 -0.2763 11.390200 30.414200 29.841500
545 1 1 -0.3506 18.718700 28.175200 27.634400
546 1 1 -0.0801 18.630300 26.758400 27.440100
547 1 1 -0.0091 17.429300 26.200314 27.035600
548 1 1 0.1829 17.576400 28.989400 27.417100
549 1 1 -0.2514 16.440600 28.403600 26.909400
550 1 1 0.0586 16.323600 27.030514 26.839400
551 1 2 0.1829 20.665500 25.708014 31.037600
552 1 6 0.0872 18.501000 32.238600 28.002700
553 1 2 -0.0430 15.629100 29.106000 26.743100
554 1 9 0.0277 18.526400 22.913214 31.200200
555 1 10 -0.0430 15.002100 26.496714 26.477600
556 1 2 0.0078 21.456000 22.401800 23.919700
557 1 2 0.2765 18.119600 28.947400 24.379000
558 1 1 0.0866 18.817600 31.195914 31.182700
559 1 4 -0.2763 14.819900 22.045286 22.700400
560 1 4 0.0839 19.632700 24.579000 27.528600
561 1 11 -0.0521 15.928000 28.782814 31.226700
562 1 1 -0.0521 17.792000 28.214700 23.737800
563 1 9 -0.0531 14.276100 30.911500 29.223700
564 1 7 -0.0531 14.601900 29.863800 22.534100
565 1 1 0.2266 18.190100 26.205000 22.567100
566 1 2 -0.2763 20.992600 30.843400 28.670700
567 1 10 -0.2763 20.027600 27.552600 23.671000
568 1 1 0.2886 12.467600 32.263100 28.805500
569 1 2 0.0896 20.911000 30.430400 23.731200
570 1 1 -0.3790 20.903300 27.593214 32.006300
571 1 1 0.0278 13.248700 24.410986 22.883700
572 1 12 0.2266 15.659400 29.703600 23.380900
573 1 1 0.0586 11.672300 24.774886 25.042200
574 1 1 0.0871 16.491100 28.388700 23.129700
575 1 2 -0.0496 12.224700 30.238400 23.556800
576 1 7 0.0277 13.640700 30.255800 29.628800
577 1 2 0.0839 13.961400 24.245486 21.995500
578 1 7 0.0277 20.757900 26.323900 28.323800
579 1 11 -0.0632 20.585300 27.985000 22.446700
580 1 2 0.0587 11.574900 28.925800 27.485300
581 1 2 0.0400 18.921300 25.527800 22.241800
582 1 1 0.0078 20.904100 30.666500 24.813300
583 1 4 -0.0801 21.580300 29.184314 30.421400
584 1 12 0.0871 12.432000 30.944500 29.577500
585 1 6 0.1829 13.897500 21.699586 25.704600
586 1 7 0.0078 19.212800 23.629214 31.428900
587 1 2 -0.0531 13.412100 27.554186 32.473200
588 1 6 0.0587 21.539400 28.237300 22.480800
589 1 9 0.0277 18.672200 22.154100 28.353400
590 1 1 0.0866 12.603200 22.311200 36.843900
591 1 2 0.0866 17.867000 25.606900 36.933100
592 1 2 0.0866 20.669700 29.422814 33.084500
593 1 2 -0.0531 17.788386 25.384300 40.744400
594 1 2 0.0866 13.159000 26.649886 41.295700
595 1 1 0.0871 11.774200 28.112786 40.471400
596 1 1 0.0866 18.219200 32.036000 40.782300
597 1 11 0.2266 14.970700 22.874700 36.350100
598 1 2 0.0078 17.715900 26.461814 34.143700
599 1 4 0.1829 11.329700 31.798886 32.345800
600 1 1 -0.2763 20.115200 29.061200 37.494600
601 1 1 0.1570 19.113400 22.334800 35.417700
602 1 11 0.0278 18.627586 23.223700 39.880300
603 1 1 0.0839 20.721500 28.060800 36.687200
604 1 1 0.3852 11.616900 23.650886 40.401800
605 1 1 -0.2514 14.578300 31.191000 41.388600
606 1 2 0.0866 19.267500 28.768500 38.090300
607 1 6 0.0078 15.378600 21.931900 36.167000
608 1 1 0.0871 21.097686 27.405800 40.564900
609 1 11 0.0839 20.103800 26.817000 36.581200
610 1 1 0.0866 13.607900 22.865300 35.970000
611 1 4 0.0278 12.766800 31.585386 37.965600
612 1 11 0.0871 21.784200 31.944200 42.018900
613 1 1 -0.2763 11.619500 29.122286 39.480900
614 1 4 -0.0801 17.533500 28.600114 35.482000
615 1 1 0.0587 17.272600 23.666500 36.231700
616 1 1 0.0872 18.202900 24.668000 36.519300
617 1 2 0.0872 19.991086 29.003100 41.581500
618 1 1 -0.2514 12.869200 27.864386 33.350800
619 1 2 -0.0483 21.048400 23.106600 35.382800
620 1 1 -0.0632 12.354100 23.074486 41.424200
621 1 6 0.0839 17.062700 30.908700 41.956400
622 1 1 0.0078 17.920600 31.429114 34.980100
623 1 2 0.0896 14.146200 29.347886 33.988900
624 1 1 -0.2763 12.387900 23.574186 42.697700
625 1 4 -0.0801 20.819086 23.352300 39.317600
626 1 1 -0.0521 13.288800 23.297000 34.691900
627 1 1 0.0839 11.960400 23.220100 34.264400
628 1 6 0.1829 13.107400 31.018586 35.557900
629 1 1 0.0277 13.285200 28.802886 34.255600
630 1 1 0.0839 12.221800 31.577000 41.964600
631 1 11 0.0871 12.812700 30.253586 36.163200
632 1 1 -0.2514 11.260700 22.331300 36.485100
633 1 10 0.2266 19.826686 23.840100 39.813900
634 1 2 -0.2623 11.481200 23.153486 39.481700
635 1 11 -0.2763 18.718500 30.289814 34.535500
636 1 1 0.0077 18.710286 25.912200 40.850200
637 1 2 -0.0801 20.160400 31.168700 38.003200
638 1 12 -0.2514 17.639486 27.766600 42.147800
639 1 1 0.0866 19.246800 31.811800 41.677900
640 1 1 0.0586 19.815686 25.302700 40.231100
641 1 1 -0.2763 19.590800 24.504700 36.237400