Untitled

14 atoms
14 bonds
20 angles
34 dihedrals
0 impropers

11 atom types
15 bond types
21 angle types
36 dihedral types

 -9.2600000   5.8760000 xlo xhi
 -0.2400000  14.3850000 ylo yhi
  0.0000000  12.7220000 zlo zhi
  0.0000000   0.0000000   0.0000000 xy xz yz

Masses # id, mass [g/mol]

 1  12.0100000 # CA (carbon aromatic)
 2   1.0080000 # HA (hydrogen aromatic)
 3  12.0100000 # C  (carbon in carboxyl)
 4  16.0000000 # O  (oxygen)
 5  14.0100000 # N (nitrogen with 1 hydrogen)
 6   1.0080000 # HN (hydrogen on nitrogen)
 7  16.0000000 # OH (protonated carboxyl oxygen)
 8  14.0100000 # NH (nitrogen with 2 hydrogens)
 9   1.0080000 # HO (hydrogen on oxygen)
 10 12.0100000 # LC (crosslinked carbon)
 11 14.0100000 # LN (crosslinked nitrogen)


Atoms

     1      1      1 -0.19950000   -7.2000000    2.9400000    0.0000000
     2      1      1 -0.07600000   -5.9900000    3.6400000    0.0000000
     3      1      1 -0.19950000   -4.7800000    2.9400000    0.0000000
     4      1      1 0.01500000   -7.2000000    1.5400000    0.0000000
     5      1      1 0.00500000   -5.9900000    0.8500000    0.0000000
     6      1      1 0.01500000   -4.7800000    1.5500000    0.0000000
     7      1      2 0.13800000   -8.1300000    3.4900000    0.0000000
     8      1      2 0.13600000   -5.9900000    4.7200000    0.0000000
     9      1      2 0.13800000   -3.8400000    3.4900000    0.0000000
    10      1      5 -0.21550000   -3.5900000    0.8700000    0.0000000
    11      1      5 -0.21550000   -8.3800000    0.8600000    0.0000000
    12      1      2 0.17200000   -5.9900000   -0.2400000    0.0000000
    13      1      6 0.14300000   -9.2600000    1.3700000    0.0000000
    14      1      6 0.14300000   -2.7100000    1.3700000    0.0000000


Bonds

     1      1 1 2
     2      2 1 4
     3      3 1 7
     4      4 2 3
     5      5 2 8
     6      6 3 6
     7      7 3 9
     8      8 4 5
     9      9 4 11
    10     10 5 6
    11     11 5 12
    12     12 6 10
    13     13 10 14
    14     14 11 13

Angles

     1      1 1 2 3
     2      2 1 2 8
     3      3 1 4 5
     4      4 1 4 11
     5      5 2 1 4
     6      6 2 1 7
     7      7 2 3 6
     8      8 2 3 9
     9      9 3 2 8
    10     10 3 6 5
    11     11 3 6 10
    12     12 4 1 7
    13     13 4 5 6
    14     14 4 5 12
    15     15 4 11 13
    16     16 5 4 11
    17     17 5 6 10
    18     18 6 3 9
    19     19 6 5 12
    20     20 6 10 14

Dihedrals

     1      1 1 2 3 6
     2      2 1 2 3 9
     3      3 1 3 2 8
     4      4 1 4 5 6
     5      5 1 4 5 12
     6      6 1 4 11 13
     7      7 1 5 4 11
     8      8 2 1 4 5
     9      9 2 1 4 11
    10     10 2 3 6 5
    11     11 2 3 6 10
    12     12 2 6 3 9
    13     13 3 5 6 10
    14     14 3 6 5 4
    15     15 3 6 5 12
    16     16 3 6 10 14
    17     17 4 1 2 3
    18     18 4 1 2 8
    19     19 4 5 6 10
    20     20 4 6 5 12
    21     21 5 4 11 13
    22     22 5 6 3 9
    23     23 5 6 10 14
    24     24 6 3 2 8
    25     25 6 5 4 11
    26     26 7 1 2 3
    27     27 7 1 2 8
    28     28 7 1 4 2
    29     29 7 1 4 5
    30     30 7 1 4 11
    31     31 8 2 3 9
    32     32 9 3 6 10
    33     33 10 6 5 12
    34     34 11 4 5 12
