Random packing of 3 x 'MPD-L.lmps', 1 x 'TMC-L.lmps', 1 x 'TMC-C.lmps'

74 atoms
74 bonds
105 angles
179 dihedrals
0 impropers

12 atom types
17 bond types
23 angle types
42 dihedral types

0.000000 65.000000 xlo xhi
0.000000 65.000000 ylo yhi
0.000000 65.000000 zlo zhi

Masses

 1 12.0100000 # CA (carbon aromatic)
 2 1.0080000 # HA (hydrogen aromatic)
 3 12.0100000 # C (carbon in carboxyl)
 4 16.0000000 # O (oxygen)
 5 14.0100000 # N (nitrogen with 1 hydrogen)
 6 1.0080000 # HN (hydrogen on nitrogen)
 7 16.0000000 # OH (protonated carboxyl oxygen)
 8 14.0100000 # NH (nitrogen with 2 hydrogens)
 9 1.0080000 # HO (hydrogen on oxygen)
 10 12.0100000 # LC (crosslinked carbon)
 11 14.0100000 # LN (crosslinked nitrogen)
 12 12.0100000 # CT (terminated carbon on carboxyl group)

Pair Coeffs

 1 
 2 
 3 
 4 
 5 
 6 
 7 
 8 
 9 
 10 
 11 
 12 

Atoms

 1 1 1 -0.19950000 36.6454995050398 55.076702983252 3.47072633810634
 2 1 1 -0.07600000 36.5756623722977 56.3983660721522 3.92064794719968
 3 1 1 -0.19950000 37.7158821802546 57.0192418925504 4.43882938761184
 4 1 1 0.01500000 37.8555564457388 54.37591571475 3.53898616942515
 5 1 1 0.00500000 38.9871329898336 55.0017971584946 4.0566800396136
 6 1 1 0.01500000 38.9172958570914 56.3234602473948 4.50660164870695
 7 1 2 0.13800000 35.7587745843786 54.6054993806751 3.07187037413305
 8 1 2 0.13600000 35.642189875187 56.938973393568 3.86799036303946
 9 1 2 0.13800000 37.6562711449867 58.0490910835223 4.78805305280189
 10 1 5 -0.21550000 40.0313829995124 56.9382932739132 5.01580709702289
 11 1 5 -0.21550000 37.9213762574742 53.0883449334017 3.1000906973576
 12 1 2 0.17200000 39.9292487508064 54.4561842137323 4.10982519399753
 13 1 6 0.14300000 37.0913397367908 52.6372539388709 2.72318714340115
 14 1 6 0.14300000 39.98844987012 57.8949522264347 5.34346605838505
 15 2 1 -0.19950000 31.2254011009605 64.3240540821549 41.7305329047101
 16 2 1 -0.07600000 30.4405855513366 63.2642335010788 42.1941543979522
 17 2 1 -0.19950000 29.5520570996715 62.6232827952363 41.3259381902819
 18 2 1 0.01500000 31.1216881989192 64.7429239573885 40.3986952037976
 19 2 1 0.00500000 30.2339005536972 64.0989813238658 39.5399921225623
 20 2 1 0.01500000 29.4490850040734 63.0391607427897 40.0036136158044
 21 2 2 0.13800000 31.9092074062424 64.8131002485162 42.4092396042674
 22 2 2 0.13600000 30.520592647197 62.9411053116129 43.2215720529419
 23 2 2 0.13800000 28.9428248585028 61.7980966035241 41.6920035195992
 24 2 5 -0.21550000 28.5758674545614 62.4062821426356 39.1577674189747
 25 2 5 -0.21550000 31.8872414275291 65.7756767415308 39.9490843264699
 26 2 2 0.17200000 30.1531526513937 64.4251014410119 38.5030613411375
 27 2 6 0.14300000 32.5335112838713 66.2415507159908 40.5813791253606
 28 2 6 0.14300000 28.0044190489775 61.6382234724714 39.486298390028
 29 3 1 -0.19950000 14.7999387339327 2.49691021313636 61.1742686908452
 30 3 1 -0.07600000 14.9813467976472 2.31522690540559 62.5483801456084
 31 3 1 -0.19950000 14.3955972733181 1.2199689508433 63.1897907065725
 32 3 1 0.01500000 14.0327811458892 1.58333556630486 60.4415677970461
 33 3 1 0.00500000 13.4525113186176 0.494603144934226 61.0882119358231
 34 3 1 0.01500000 13.633919382332 0.312919837203447 62.4623233905863
 35 3 2 0.13800000 15.2567094929074 3.34653989980647 60.68755535707
 36 3 2 0.13600000 15.5731540798521 3.01998449010418 63.1136065493962
 37 3 2 0.13800000 14.5399223581814 1.08287129846876 64.260526203132
 38 3 5 -0.21550000 13.0624709170816 -0.758733817402861 63.0975439004345
 39 3 5 -0.21550000 13.8573199788441 1.76224009005994 59.102909308021
 40 3 2 0.17200000 12.8552243393551 -0.216679972956018 60.5177519542224
 41 3 6 0.14300000 14.2838177871795 2.55938456003175 58.6369046798482
 42 3 6 0.14300000 13.189422511549 -0.896799435017659 64.0921398877051
 43 4 1 -0.18050000 16.7208024263096 56.6811266411351 7.80090078265208
 44 4 1 -0.03400000 15.7627321051744 57.6456589557957 7.44681227149203
 45 4 1 -0.18050000 16.1252909098049 58.6878867046666 6.59252166949036
 46 4 1 -0.10450000 18.0142579560964 56.7667506921449 7.290762257982
 47 4 1 -0.14500000 18.3644926983859 57.8158295809089 6.43538566814378
 48 4 1 -0.10450000 17.4212719108886 58.779284418663 6.09014760297564
 49 4 2 0.15350000 16.4669451052353 55.8628583125669 8.46617771972347
 50 4 2 0.15350000 15.3910098717903 59.4389302757342 6.31151470948727
 51 4 2 0.13200000 19.383225733836 57.8786467621476 6.04444193277529
 52 4 3 0.29650000 19.0192976892301 55.7320056457385 7.68178377114963
 53 4 3 0.29650000 17.77021377623 59.9046849482505 5.17843864578798
 54 4 12 0.35200000 14.3560331769529 57.5788869916492 7.9797659562945
 55 4 4 -0.36700000 13.4950904351458 58.3949209211094 7.70450931005453
 56 4 4 -0.09550000 20.1742586944655 55.7056137034589 7.29998730473279
 57 4 4 -0.09550000 18.872629494171 60.0721874318854 4.68243209057648
 58 4 7 -0.31800000 14.0935317904507 56.5755393896904 8.77260049876093
 59 4 9 0.24200000 13.1601449908229 56.6740622677167 9.02869096087547
 60 5 1 -0.26200000 18.5220577286897 38.4810266271663 18.1620215128977
 61 5 1 -0.07300000 19.0935886798397 37.2254907786829 18.3769217340482
 62 5 1 -0.26200000 19.7788765393344 36.9841044892164 19.5722096528723
 63 5 1 -0.07300000 18.6283765995988 39.4888263795043 19.1223006165317
 64 5 1 -0.26200000 19.308616429832 39.231003186475 20.3196731460732
 65 5 1 -0.07300000 19.8949405464416 37.9781006656407 20.5431889253123
 66 5 2 0.06300000 17.9903111583915 38.6720418877219 17.2291985097449
 67 5 2 0.06300000 20.2281685744742 36.0047687597301 19.7500809437304
 68 5 2 0.06300000 19.3946607984211 40.005796070131 21.0725956879526
 69 5 3 -0.17400000 18.0007648394346 40.817096586586 18.8653925873022
 70 5 3 -0.17400000 20.626646988164 37.6878498791984 21.8013861133999
 71 5 3 -0.17400000 18.9746179234104 36.1747717446856 17.3354153871111
 72 5 4 -0.55300000 19.4412594751444 35.05092184866 17.4232053261621
 73 5 4 -0.55300000 18.0289380413949 41.7515871658897 19.6340496160764
 74 5 4 -0.55300000 20.779375323099 38.4863860457364 22.7111190667651

Bonds

 1 1 1 2
 2 1 1 4
 3 3 1 7
 4 1 2 3
 5 3 2 8
 6 1 3 6
 7 3 3 9
 8 1 4 5
 9 6 4 11
 10 1 5 6
 11 3 5 12
 12 6 6 10
 13 7 10 14
 14 7 11 13
 15 1 15 16
 16 1 15 18
 17 3 15 21
 18 1 16 17
 19 3 16 22
 20 1 17 20
 21 3 17 23
 22 1 18 19
 23 6 18 25
 24 1 19 20
 25 3 19 26
 26 6 20 24
 27 7 24 28
 28 7 25 27
 29 1 29 30
 30 1 29 32
 31 3 29 35
 32 1 30 31
 33 3 30 36
 34 1 31 34
 35 3 31 37
 36 1 32 33
 37 6 32 39
 38 1 33 34
 39 3 33 40
 40 6 34 38
 41 7 38 42
 42 7 39 41
 43 1 43 44
 44 1 43 46
 45 3 43 49
 46 1 44 45
 47 16 44 54
 48 1 45 48
 49 3 45 50
 50 1 46 47
 51 2 46 52
 52 1 47 48
 53 3 47 51
 54 2 48 53
 55 4 52 56
 56 4 53 57
 57 17 54 55
 58 14 54 58
 59 15 58 59
 60 1 60 61
 61 1 60 63
 62 3 60 66
 63 1 61 62
 64 2 61 71
 65 1 62 65
 66 3 62 67
 67 1 63 64
 68 2 63 69
 69 1 64 65
 70 3 64 68
 71 2 65 70
 72 4 69 73
 73 4 70 74
 74 4 71 72

Angles

 1 1 1 2 3
 2 2 1 2 8
 3 1 1 4 5
 4 9 1 4 11
 5 1 2 1 4
 6 2 2 1 7
 7 1 2 3 6
 8 2 2 3 9
 9 2 3 2 8
 10 1 3 6 5
 11 9 3 6 10
 12 2 4 1 7
 13 1 4 5 6
 14 2 4 5 12
 15 10 4 11 13
 16 9 5 4 11
 17 9 5 6 10
 18 2 6 3 9
 19 2 6 5 12
 20 10 6 10 14
 21 1 15 16 17
 22 2 15 16 22
 23 1 15 18 19
 24 9 15 18 25
 25 1 16 15 18
 26 2 16 15 21
 27 1 16 17 20
 28 2 16 17 23
 29 2 17 16 22
 30 1 17 20 19
 31 9 17 20 24
 32 2 18 15 21
 33 1 18 19 20
 34 2 18 19 26
 35 10 18 25 27
 36 9 19 18 25
 37 9 19 20 24
 38 2 20 17 23
 39 2 20 19 26
 40 10 20 24 28
 41 1 29 30 31
 42 2 29 30 36
 43 1 29 32 33
 44 9 29 32 39
 45 1 30 29 32
 46 2 30 29 35
 47 1 30 31 34
 48 2 30 31 37
 49 2 31 30 36
 50 1 31 34 33
 51 9 31 34 38
 52 2 32 29 35
 53 1 32 33 34
 54 2 32 33 40
 55 10 32 39 41
 56 9 33 32 39
 57 9 33 34 38
 58 2 34 31 37
 59 2 34 33 40
 60 10 34 38 42
 61 1 43 44 45
 62 23 43 44 54
 63 1 43 46 47
 64 4 43 46 52
 65 1 44 43 46
 66 2 44 43 49
 67 1 44 45 48
 68 2 44 45 50
 69 22 44 54 55
 70 19 44 54 58
 71 23 45 44 54
 72 1 45 48 47
 73 4 45 48 53
 74 2 46 43 49
 75 1 46 47 48
 76 2 46 47 51
 77 3 46 52 56
 78 4 47 46 52
 79 4 47 48 53
 80 2 48 45 50
 81 2 48 47 51
 82 3 48 53 57
 83 20 54 58 59
 84 21 55 54 58
 85 1 60 61 62
 86 4 60 61 71
 87 1 60 63 64
 88 4 60 63 69
 89 1 61 60 63
 90 2 61 60 66
 91 1 61 62 65
 92 2 61 62 67
 93 3 61 71 72
 94 4 62 61 71
 95 1 62 65 64
 96 4 62 65 70
 97 2 63 60 66
 98 1 63 64 65
 99 2 63 64 68
 100 3 63 69 73
 101 4 64 63 69
 102 4 64 65 70
 103 2 65 62 67
 104 2 65 64 68
 105 3 65 70 74

Dihedrals

 1 1 1 2 3 6
 2 11 1 2 3 9
 3 2 1 3 2 8
 4 1 1 4 5 6
 5 11 1 4 5 12
 6 37 1 4 11 13
 7 25 1 5 4 11
 8 1 2 1 4 5
 9 14 2 1 4 11
 10 1 2 3 6 5
 11 14 2 3 6 10
 12 2 2 6 3 9
 13 25 3 5 6 10
 14 1 3 6 5 4
 15 11 3 6 5 12
 16 37 3 6 10 14
 17 1 4 1 2 3
 18 11 4 1 2 8
 19 14 4 5 6 10
 20 2 4 6 5 12
 21 37 5 4 11 13
 22 11 5 6 3 9
 23 37 5 6 10 14
 24 11 6 3 2 8
 25 14 6 5 4 11
 26 11 7 1 2 3
 27 19 7 1 2 8
 28 2 7 1 4 2
 29 11 7 1 4 5
 30 16 7 1 4 11
 31 19 8 2 3 9
 32 16 9 3 6 10
 33 16 10 6 5 12
 34 16 11 4 5 12
 35 1 15 16 17 20
 36 11 15 16 17 23
 37 2 15 17 16 22
 38 1 15 18 19 20
 39 11 15 18 19 26
 40 37 15 18 25 27
 41 25 15 19 18 25
 42 1 16 15 18 19
 43 14 16 15 18 25
 44 1 16 17 20 19
 45 14 16 17 20 24
 46 2 16 20 17 23
 47 25 17 19 20 24
 48 1 17 20 19 18
 49 11 17 20 19 26
 50 37 17 20 24 28
 51 1 18 15 16 17
 52 11 18 15 16 22
 53 14 18 19 20 24
 54 2 18 20 19 26
 55 37 19 18 25 27
 56 11 19 20 17 23
 57 37 19 20 24 28
 58 11 20 17 16 22
 59 14 20 19 18 25
 60 11 21 15 16 17
 61 19 21 15 16 22
 62 2 21 15 18 16
 63 11 21 15 18 19
 64 16 21 15 18 25
 65 19 22 16 17 23
 66 16 23 17 20 24
 67 16 24 20 19 26
 68 16 25 18 19 26
 69 1 29 30 31 34
 70 11 29 30 31 37
 71 2 29 31 30 36
 72 1 29 32 33 34
 73 11 29 32 33 40
 74 37 29 32 39 41
 75 25 29 33 32 39
 76 1 30 29 32 33
 77 14 30 29 32 39
 78 1 30 31 34 33
 79 14 30 31 34 38
 80 2 30 34 31 37
 81 25 31 33 34 38
 82 1 31 34 33 32
 83 11 31 34 33 40
 84 37 31 34 38 42
 85 1 32 29 30 31
 86 11 32 29 30 36
 87 14 32 33 34 38
 88 2 32 34 33 40
 89 37 33 32 39 41
 90 11 33 34 31 37
 91 37 33 34 38 42
 92 11 34 31 30 36
 93 14 34 33 32 39
 94 11 35 29 30 31
 95 19 35 29 30 36
 96 2 35 29 32 30
 97 11 35 29 32 33
 98 16 35 29 32 39
 99 19 36 30 31 37
 100 16 37 31 34 38
 101 16 38 34 33 40
 102 16 39 32 33 40
 103 1 43 44 45 48
 104 11 43 44 45 50
 105 39 43 44 54 55
 106 38 43 44 54 58
 107 42 43 45 44 54
 108 1 43 46 47 48
 109 11 43 46 47 51
 110 3 43 46 52 56
 111 1 44 43 46 47
 112 9 44 43 46 52
 113 1 44 45 48 47
 114 9 44 45 48 53
 115 2 44 48 45 50
 116 35 44 54 58 59
 117 21 44 55 54 58
 118 39 45 44 54 55
 119 38 45 44 54 58
 120 1 45 48 47 46
 121 11 45 48 47 51
 122 3 45 48 53 57
 123 1 46 43 44 45
 124 40 46 43 44 54
 125 9 46 47 48 53
 126 2 46 48 47 51
 127 3 47 46 52 56
 128 11 47 48 45 50
 129 3 47 48 53 57
 130 40 48 45 44 54
 131 9 48 47 46 52
 132 11 49 43 44 45
 133 41 49 43 44 54
 134 2 49 43 46 44
 135 11 49 43 46 47
 136 12 49 43 46 52
 137 41 50 45 44 54
 138 12 50 45 48 53
 139 12 51 47 46 52
 140 12 51 47 48 53
 141 22 52 43 46 47
 142 22 53 45 48 47
 143 36 55 54 58 59
 144 1 60 61 62 65
 145 11 60 61 62 67
 146 3 60 61 71 72
 147 1 60 63 64 65
 148 11 60 63 64 68
 149 3 60 63 69 73
 150 1 61 60 63 64
 151 9 61 60 63 69
 152 1 61 62 65 64
 153 9 61 62 65 70
 154 2 61 65 62 67
 155 3 62 61 71 72
 156 1 62 65 64 63
 157 11 62 65 64 68
 158 3 62 65 70 74
 159 1 63 60 61 62
 160 9 63 60 61 71
 161 9 63 64 65 70
 162 2 63 65 64 68
 163 3 64 63 69 73
 164 11 64 65 62 67
 165 3 64 65 70 74
 166 9 65 62 61 71
 167 9 65 64 63 69
 168 11 66 60 61 62
 169 12 66 60 61 71
 170 2 66 60 63 61
 171 11 66 60 63 64
 172 12 66 60 63 69
 173 12 67 62 61 71
 174 12 67 62 65 70
 175 12 68 64 63 69
 176 12 68 64 65 70
 177 22 69 60 63 64
 178 22 70 62 65 64
 179 22 71 60 61 62

