Untitled

17 atoms
17 bonds
24 angles
41 dihedrals
0 impropers

11 atom types
15 bond types
21 angle types
36 dihedral types

-10.3400000   5.8820000 xlo xhi
 -1.0600000  14.5370000 ylo yhi
 -0.1300000  13.5220000 zlo zhi
  0.0000000   0.0000000   0.0000000 xy xz yz

Masses # id, mass [g/mol]

 1  12.0100000 # CA (carbon aromatic)
 2   1.0080000 # HA (hydrogen aromatic)
 3  12.0100000 # C  (carbon in carboxyl)
 4  16.0000000 # O  (oxygen)
 5  14.0100000 # N (nitrogen with 1 hydrogen)
 6   1.0080000 # HN (hydrogen on nitrogen)
 7  16.0000000 # OH (protonated carboxyl oxygen)
 8  14.0100000 # NH (nitrogen with 2 hydrogens)
 9   1.0080000 # HO (hydrogen on oxygen)
 10 12.0100000 # LC (crosslinked carbon)
 11 14.0100000 # LN (crosslinked nitrogen)


Atoms

     1      1      1 -0.18050000   -8.7000000    2.5300000   -0.0500000
     2      1      1 -0.03400000   -7.4400000    3.1500000   -0.0100000
     3      1      1 -0.18050000   -6.2900000    2.3600000    0.0200000
     4      1      1 -0.10450000   -8.7900000    1.1400000   -0.0700000
     5      1      1 -0.14500000   -7.6300000    0.3600000   -0.0400000
     6      1      1 -0.10450000   -6.3800000    0.9700000    0.0100000
     7      1      2 0.15350000   -9.6100000    3.1200000   -0.0700000
     8      1      2 0.15350000   -5.3100000    2.8300000    0.0500000
     9      1      2 0.13200000   -7.7100000   -0.7300000   -0.0500000
    10      1      3 0.29650000  -10.1400000    0.5000000   -0.1100000
    11      1      3 0.29650000   -5.1300000    0.1600000    0.0400000
    12      1      3 0.35200000   -7.3100000    4.6500000    0.0100000
    13      1      4 -0.36700000   -6.2400000    5.2300000    0.0500000
    14      1      4 -0.09550000  -10.3400000   -0.7000000   -0.1300000
    15      1      4 -0.09550000   -5.1000000   -1.0600000    0.0300000
    16      1      7 -0.31800000   -8.4300000    5.3200000   -0.0200000
    17      1      9 0.24200000   -8.1800000    6.2600000   -0.0000000


Bonds

     1      1 1 2
     2      2 1 4
     3      3 1 7
     4      4 2 3
     5      5 2 12
     6      6 3 6
     7      7 3 8
     8      8 4 5
     9      9 4 10
    10     10 5 6
    11     11 5 9
    12     12 6 11
    13     13 10 14
    14     14 11 15
    15     15 12 13
    16     16 12 16
    17     17 16 17

Angles

     1      1 1 2 3
     2      2 1 2 12
     3      3 1 4 5
     4      4 1 4 10
     5      5 2 1 4
     6      6 2 1 7
     7      7 2 3 6
     8      8 2 3 8
     9      9 2 12 13
    10     10 2 12 16
    11     11 3 2 12
    12     12 3 6 5
    13     13 3 6 11
    14     14 4 1 7
    15     15 4 5 6
    16     16 4 5 9
    17     17 4 10 14
    18     18 5 4 10
    19     19 5 6 11
    20     20 6 3 8
    21     21 6 5 9
    22     22 6 11 15
    23     23 12 16 17
    24     24 13 12 16

Dihedrals

     1      1 1 2 3 6
     2      2 1 2 3 8
     3      3 1 2 12 13
     4      4 1 2 12 16
     5      5 1 3 2 12
     6      6 1 4 5 6
     7      7 1 4 5 9
     8      8 1 4 10 14
     9      9 2 1 4 5
    10     10 2 1 4 10
    11     11 2 3 6 5
    12     12 2 3 6 11
    13     13 2 6 3 8
    14     14 2 12 16 17
    15     15 2 13 12 16
    16     16 3 2 12 13
    17     17 3 2 12 16
    18     18 3 6 5 4
    19     19 3 6 5 9
    20     20 3 6 11 15
    21     21 4 1 2 3
    22     22 4 1 2 12
    23     23 4 5 6 11
    24     24 4 6 5 9
    25     25 5 4 10 14
    26     26 5 6 3 8
    27     27 5 6 11 15
    28     28 6 3 2 12
    29     29 6 5 4 10
    30     30 7 1 2 3
    31     31 7 1 2 12
    32     32 7 1 4 2
    33     33 7 1 4 5
    34     34 7 1 4 10
    35     35 8 3 2 12
    36     36 8 3 6 11
    37     37 9 5 4 10
    38     38 9 5 6 11
    39     39 10 1 4 5
    40     40 11 3 6 5
    41     41 13 12 16 17
