Untitled

15 atoms
15 bonds
21 angles
36 dihedrals
0 impropers

11 atom types
15 bond types
21 angle types
36 dihedral types

-10.3800000   5.8530000 xlo xhi
 -1.0900000  14.4760000 ylo yhi
 -0.1300000  13.4910000 zlo zhi
  0.0000000   0.0000000   0.0000000 xy xz yz

Masses # id, mass [g/mol]

 1  12.0100000 # CA (carbon aromatic)
 2   1.0080000 # HA (hydrogen aromatic)
 3  12.0100000 # C  (carbon in carboxyl)
 4  16.0000000 # O  (oxygen)
 5  14.0100000 # N (nitrogen with 1 hydrogen)
 6   1.0080000 # HN (hydrogen on nitrogen)
 7  16.0000000 # OH (protonated carboxyl oxygen)
 8  14.0100000 # NH (nitrogen with 2 hydrogens)
 9   1.0080000 # HO (hydrogen on oxygen)
 10 12.0100000 # LC (crosslinked carbon)
 11 14.0100000 # LN (crosslinked nitrogen)


Atoms

     1      1      1 -0.26200000   -8.6700000    2.5600000   -0.0500000
     2      1      1 -0.07300000   -7.4100000    3.1600000   -0.0100000
     3      1      1 -0.26200000   -6.2700000    2.3500000    0.0200000
     4      1      1 -0.07300000   -8.8000000    1.1700000   -0.0600000
     5      1      1 -0.26200000   -7.6500000    0.3700000   -0.0400000
     6      1      1 -0.07300000   -6.3800000    0.9600000    0.0100000
     7      1      2 0.06300000   -9.5600000    3.1900000   -0.0700000
     8      1      2 0.06300000   -5.2800000    2.8100000    0.0500000
     9      1      2 0.06300000   -7.7400000   -0.7100000   -0.0500000
    10      1      3 -0.17400000  -10.1600000    0.5600000   -0.1100000
    11      1      3 -0.17400000   -5.1500000    0.1300000    0.0400000
    12      1      3 -0.17400000   -7.3000000    4.6400000    0.0100000
    13      1      4 -0.55300000   -6.2500000    5.2600000    0.0500000
    14      1      4 -0.55300000  -10.3800000   -0.6300000   -0.1300000
    15      1      4 -0.55300000   -5.1400000   -1.0900000    0.0300000


Bonds

     1      1 1 2
     2      2 1 4
     3      3 1 7
     4      4 2 3
     5      5 2 12
     6      6 3 6
     7      7 3 8
     8      8 4 5
     9      9 4 10
    10     10 5 6
    11     11 5 9
    12     12 6 11
    13     13 10 14
    14     14 11 15
    15     15 12 13

Angles

     1      1 1 2 3
     2      2 1 2 12
     3      3 1 4 5
     4      4 1 4 10
     5      5 2 1 4
     6      6 2 1 7
     7      7 2 3 6
     8      8 2 3 8
     9      9 2 12 13
    10     10 3 2 12
    11     11 3 6 5
    12     12 3 6 11
    13     13 4 1 7
    14     14 4 5 6
    15     15 4 5 9
    16     16 4 10 14
    17     17 5 4 10
    18     18 5 6 11
    19     19 6 3 8
    20     20 6 5 9
    21     21 6 11 15

Dihedrals

     1      1 1 2 3 6
     2      2 1 2 3 8
     3      3 1 2 12 13
     4      4 1 4 5 6
     5      5 1 4 5 9
     6      6 1 4 10 14
     7      7 2 1 4 5
     8      8 2 1 4 10
     9      9 2 3 6 5
    10     10 2 3 6 11
    11     11 2 6 3 8
    12     12 3 2 12 13
    13     13 3 6 5 4
    14     14 3 6 5 9
    15     15 3 6 11 15
    16     16 4 1 2 3
    17     17 4 1 2 12
    18     18 4 5 6 11
    19     19 4 6 5 9
    20     20 5 4 10 14
    21     21 5 6 3 8
    22     22 5 6 11 15
    23     23 6 3 2 12
    24     24 6 5 4 10
    25     25 7 1 2 3
    26     26 7 1 2 12
    27     27 7 1 4 2
    28     28 7 1 4 5
    29     29 7 1 4 10
    30     30 8 3 2 12
    31     31 8 3 6 11
    32     32 9 5 4 10
    33     33 9 5 6 11
    34     34 10 1 4 5
    35     35 11 3 6 5
    36     36 12 1 2 3
