LAMMPS data file via write_data, version 29 Oct 2020, timestep = 212

6481 atoms
14 atom types
6874 bonds
18 bond types
10699 angles
23 angle types
18775 dihedrals
42 dihedral types

11.246593 53.753407 xlo xhi
11.246593 53.753407 ylo yhi
1.27354 64.665814 zlo zhi

Masses

1 12.01
2 1.008
3 12.01
4 16
5 14.01
6 1.008
7 16
8 14.01
9 1.008
10 12.01
11 14.01
12 12.01
13 1.008
14 16

Pair Coeffs # lj/cut/coul/long/omp

1 0.086 3.39967
2 0.015 2.59964
3 0.086 3.39967
4 0.21 2.95992
5 0.17 3.25
6 0.0157 1.06908
7 0.2104 3.06647
8 0.17 3.25
9 0 0
10 0.086 3.39967
11 0.17 3.25
12 0.086 3.39967
13 0.0157 1.06908
14 0.2104 3.06647

Atoms # full

1 1 6 -0.0531 15.622357 18.391134 13.978627
2 1 1 0.0866 11.773183 13.878650 14.504820
3 1 1 0.0277 12.896177 12.275714 16.533614
4 1 2 0.0871 14.473554 15.333315 13.927360
5 1 4 0.2765 18.008220 19.130782 13.600477
6 1 1 -0.0531 17.122851 14.131971 15.709032
7 1 1 0.1829 17.773514 15.349255 15.965646
8 1 1 0.0839 17.264131 16.547377 15.468584
9 1 1 -0.0632 16.116321 16.511360 14.667980
10 1 8 -0.0801 15.938634 17.480827 13.680176
11 1 2 -0.2763 17.913886 17.416296 15.498081
12 1 2 -0.0521 11.678544 18.016777 12.221689
13 1 1 0.0872 13.030940 11.899518 15.186666
14 1 1 0.1829 15.364218 15.338699 14.549991
15 1 1 -0.2763 12.417415 12.666554 14.173013
16 1 2 0.2765 15.372761 13.207804 14.800748
17 1 2 0.0872 17.584101 13.201197 16.020565
18 1 2 -0.2514 15.347131 20.100631 13.138247
19 1 2 0.0586 12.449763 12.330412 13.139376
20 1 1 -0.0531 15.899424 14.130771 15.016723
21 1 1 -0.2415 12.237724 13.461395 16.885500
22 1 1 -0.043 11.686695 14.261984 15.860974
23 1 2 0.0078 12.874367 21.484889 9.937307
24 1 6 0.157 15.615067 18.395339 14.023643
25 1 7 -0.2415 11.859614 14.782588 12.259922
26 1 12 -0.2514 18.108207 20.288329 13.281297
27 1 7 -0.2415 17.867340 20.696142 12.011700
28 1 2 0.0278 20.556624 14.639583 12.014511
29 1 1 0.0839 21.105915 16.250489 13.348862
30 1 1 -0.0632 18.751992 20.921910 15.623952
31 1 11 -0.2763 19.044550 15.356155 16.558798
32 1 2 0.0078 21.460604 15.812080 16.444085
33 1 6 0.1829 19.769280 15.811041 16.021580
34 1 1 0.0278 18.514550 21.310268 14.286357
35 1 2 -0.2514 18.909389 19.870468 15.875323
36 1 1 0.0896 21.246587 14.971192 12.787767
37 1 2 0.3852 21.448267 18.796730 16.576596
38 1 2 0.1829 20.275621 16.891376 13.051077
39 1 6 0.0866 23.757225 13.076596 12.023029
40 1 11 0.0866 23.923284 19.567919 15.722355
41 1 10 -0.0632 24.178292 16.298288 17.012174
42 1 11 0.2266 24.081499 16.354565 15.624604
43 1 1 0.0871 23.106150 15.875551 14.708741
44 1 1 0.0873 23.371380 19.758982 17.034578
45 1 6 0.0872 24.920854 16.685184 15.167946
46 1 1 -0.2514 25.033212 19.122738 11.505632
47 1 6 -0.0632 23.233738 19.514312 14.980016
48 1 1 0.04 23.248169 14.601755 14.130983
49 1 1 0.0839 24.649839 19.151589 12.857763
50 1 2 0.0866 24.101365 13.984545 14.402696
51 1 2 -0.2763 24.761633 13.555528 16.942774
52 1 10 -0.2514 25.266835 19.605856 15.323165
53 1 8 0.1829 22.788988 13.203997 12.184425
54 1 2 0.0866 23.594033 19.286285 13.088556
55 1 2 0.0872 22.013753 17.744431 14.607363
56 1 1 -0.0632 22.079064 16.723034 14.246816
57 1 1 -0.0521 22.382958 14.200192 13.093166
58 1 12 0.0866 24.183805 19.914887 10.585569
59 1 4 -0.0521 23.061167 19.569418 10.279382
60 1 7 -0.2415 23.777225 21.689127 13.893555
61 1 6 0.157 23.821833 13.163143 12.097379
62 1 7 -0.2415 24.527282 21.224333 10.653754
63 1 1 0.0896 29.019448 18.348277 17.106204
64 1 6 0.2266 32.402772 13.571709 15.143878
65 1 1 -0.0632 25.620540 19.375053 13.857569
66 1 6 0.0078 30.086659 15.234083 16.538658
67 1 1 0.0874 30.098083 13.960882 14.530662
68 1 4 0.0872 27.551553 16.463760 15.130983
69 1 9 -0.2514 29.076842 20.339768 13.307000
70 1 2 -0.0531 28.158968 18.454398 16.457095
71 1 10 -0.2514 31.772547 12.157659 13.812817
72 1 2 0.2266 25.975677 12.041375 15.622121
73 1 4 0.157 25.883710 12.568616 12.061759
74 1 1 0.0896 26.461050 12.425249 16.509241
75 1 1 0.2266 26.958955 19.557864 13.433668
76 1 2 -0.0632 27.700246 19.849820 14.168379
77 1 6 -0.043 28.451129 21.019963 16.980022
78 1 1 0.0078 27.353472 19.380244 12.089616
79 1 4 0.2886 26.120113 20.014582 16.089340
80 1 12 -0.379 27.011558 12.118022 12.138825
81 1 1 0.2765 29.438141 12.337922 12.865158
82 1 1 -0.0483 30.435287 12.866188 13.704606
83 1 1 0.0587 27.792363 13.885049 13.771289
84 1 1 -0.2623 28.782836 14.481450 14.577203
85 1 10 -0.0801 28.471649 15.711041 15.410656
86 1 2 -0.2514 29.655578 11.438670 12.287047
87 1 2 -0.043 30.859109 14.390447 15.171618
88 1 1 0.2765 28.112776 12.821059 12.901432
89 1 12 0.1829 28.757277 19.619602 11.606829
90 1 7 0.2266 29.609757 20.119556 12.524819
91 1 2 -0.2763 26.754977 14.202196 13.869109
92 1 11 0.1829 29.398242 15.965924 16.417753
93 1 1 0.0839 27.762014 12.064148 16.875223
94 1 2 -0.2623 26.657884 19.026268 10.092494
95 1 4 -0.0632 29.105770 19.493614 10.443945
96 1 1 0.0078 26.381200 19.056807 11.142740
97 1 1 -0.0531 14.535973 16.780514 21.728322
98 1 1 0.2266 14.636869 15.392812 21.505391
99 1 2 -0.0801 13.735633 14.789909 21.415846
100 1 1 -0.2415 11.603102 18.317672 17.517098
101 1 4 0.0839 18.302313 15.300869 18.707894
102 1 2 -0.0092 12.701119 20.916694 20.219106
103 1 6 0.2266 17.999434 13.449357 20.829395
104 1 1 -0.2415 13.835596 16.806062 18.392819
105 1 2 -0.2763 14.670936 16.213367 18.793365
106 1 2 -0.379 15.002164 18.580380 17.964120
107 1 4 0.157 11.986661 12.797775 19.121598
108 1 2 -0.2763 13.340674 11.666452 17.328386
109 1 10 -0.2763 15.967217 13.252352 21.060758
110 1 1 -0.0632 13.998356 18.147413 17.977689
111 1 4 0.0277 12.135121 16.825416 21.756449
112 1 11 0.0896 17.236112 12.774271 20.721914
113 1 1 -0.0801 12.867406 18.909316 17.580673
114 1 1 0.0896 12.004380 20.830777 21.045747
115 1 1 0.0077 12.553704 16.234327 18.341272
116 1 10 0.0078 12.093812 13.735778 18.360830
117 1 6 -0.043 12.436245 14.970413 19.935446
118 1 11 0.0078 12.346933 14.972651 18.925864
119 1 1 -0.0632 17.568347 11.564155 20.017316
120 1 10 0.0871 13.175818 17.459063 21.775415
121 1 1 0.1829 15.886440 14.736520 21.425316
122 1 1 -0.0645 11.444891 16.983657 17.911259
123 1 4 0.2266 14.953498 12.624544 20.813003
124 1 1 -0.0632 15.732758 17.503277 21.921638
125 1 6 -0.0483 14.045745 19.299991 21.593276
126 1 11 -0.2763 13.169483 18.846234 21.812343
127 1 1 0.1829 17.053632 15.479205 21.689376
128 1 6 0.0872 13.618257 12.489692 23.488173
129 1 1 -0.2514 15.299376 20.386135 24.990791
130 1 2 0.0871 12.270402 13.196213 22.579729
131 1 1 0.0872 16.563262 12.787495 24.837264
132 1 2 -0.043 16.740292 13.797045 24.485434
133 1 11 -0.0801 18.194282 18.585571 23.383821
134 1 10 0.0866 13.836750 14.221290 24.581909
135 1 2 -0.0531 15.688701 18.574330 22.064863
136 1 1 0.0866 12.487923 14.692583 24.101043
137 1 1 -0.0632 17.098799 18.895766 24.241547
138 1 1 0.0872 11.846046 15.737364 24.770802
139 1 1 -0.043 15.300890 12.202181 24.643011
140 1 11 -0.0645 14.523953 21.574643 24.884727
141 1 1 -0.0632 12.073390 19.740208 21.929678
142 1 2 -0.0632 16.860645 20.935390 23.578558
143 1 1 -0.2514 16.476338 20.163958 24.238693
144 1 11 -0.0632 14.234398 12.971469 24.126526
145 1 10 0.0078 18.248149 17.605768 22.380862
146 1 1 0.0866 16.988290 16.860710 21.985293
147 1 1 0.2765 11.779584 14.001686 23.107895
148 1 2 -0.2763 17.995966 14.920328 21.698184
149 1 2 -0.2415 12.936750 19.948895 17.251440
150 1 1 -0.2415 20.969654 15.184398 19.732004
151 1 2 -0.0531 18.985349 12.589634 18.739326
152 1 1 0.1829 18.535674 11.637619 18.999084
153 1 2 0.0078 20.163448 14.994509 20.436908
154 1 1 0.0866 20.672681 15.388355 18.376261
155 1 4 -0.0521 18.412834 20.624175 18.592092
156 1 1 -0.0632 20.059362 21.299271 20.975405
157 1 2 -0.0521 20.766274 18.552731 18.877073
158 1 1 -0.2514 21.724643 15.633792 17.464590
159 1 10 0.0866 19.237858 15.358204 17.925142
160 1 1 0.0839 21.697568 19.063595 18.658806
161 1 10 0.2886 19.036666 21.529801 18.068690
162 1 2 -0.2514 19.531493 20.433418 20.628259
163 1 1 0.2266 21.876544 12.796629 21.595456
164 1 6 -0.2514 19.082794 18.980653 23.690651
165 1 2 0.04 20.431369 12.421000 23.162851
166 1 1 0.2266 20.885192 12.040696 22.250820
167 1 1 0.0866 20.426498 21.328532 22.322826
168 1 2 0.1829 20.144926 20.483406 22.951447
169 1 4 -0.2763 19.326156 17.253672 21.930083
170 1 2 -0.0801 24.948155 21.028430 17.847345
171 1 1 -0.2514 23.306995 15.650258 19.284044
172 1 11 0.0872 24.263615 21.118990 20.433219
173 1 1 -0.0496 22.284488 15.332787 20.202214
174 1 10 -0.0632 22.608759 15.179192 21.670374
175 1 10 -0.2514 24.597211 20.648601 21.707118
176 1 2 0.0872 22.124546 19.504656 20.712015
177 1 4 -0.043 25.215295 16.700527 17.513136
178 1 1 -0.2763 22.472793 19.606717 19.688130
179 1 1 0.0896 24.058071 20.448310 18.066772
180 1 2 -0.0531 23.284532 12.843283 19.938545
181 1 2 -0.0645 24.297639 15.839666 19.679843
182 1 1 0.0277 22.483916 12.294324 20.429290
183 1 1 0.0278 23.620326 20.367818 19.401387
184 1 1 -0.0531 23.051591 15.807304 17.903724
185 1 1 -0.2514 22.120784 19.180802 17.333038
186 1 11 -0.2623 22.447371 13.915996 22.235615
187 1 2 0.3852 24.523687 13.168525 23.297408
188 1 2 0.0078 25.046825 20.185476 24.369192
189 1 6 -0.2514 22.925546 13.699560 23.115398
190 1 1 -0.2763 24.808737 21.225612 24.173270
191 1 1 -0.2763 24.673363 21.656769 22.831078
192 1 4 -0.0801 23.161760 16.074373 22.284839
193 1 2 0.0078 22.159548 19.832003 24.764728
194 1 4 -0.0632 24.600886 19.453816 21.950753
195 1 10 0.0078 28.011257 21.177688 18.982698
196 1 1 0.0278 29.682537 17.109785 17.214305
197 1 1 0.0866 29.457430 19.452965 17.862742
198 1 11 0.0839 28.662721 20.624420 17.888674
199 1 2 -0.0531 31.284969 16.035762 18.185162
200 1 1 -0.2514 28.238525 21.353265 21.463467
201 1 2 0.0078 30.992288 20.206139 19.204080
202 1 11 -0.0801 28.020822 13.604889 20.261191
203 1 1 -0.0801 27.968152 19.141873 20.510820
204 1 2 0.0078 27.848119 18.506472 19.640731
205 1 1 -0.0632 28.137231 20.526833 20.333323
206 1 1 0.0871 31.281808 18.118594 18.760812
207 1 1 0.157 25.744645 13.316485 17.304352
208 1 1 -0.0531 30.621345 19.349176 18.648761
209 1 1 -0.2763 27.840035 18.582195 21.796603
210 1 2 0.2266 32.042463 14.666112 21.650003
211 1 1 0.0866 30.783697 16.996269 18.081467
212 1 2 -0.2763 29.292142 12.193504 18.349801
213 1 6 0.2266 28.025039 14.577713 20.558767
214 1 1 0.0896 26.277255 13.817650 18.509557
215 1 2 0.2266 25.672388 14.474724 19.130583
216 1 1 0.3852 27.550571 13.380681 18.933562
217 1 1 0.1829 28.311160 12.568061 18.062316
218 1 10 -0.0632 28.562518 12.706419 21.188899
219 1 4 0.1829 27.410563 16.429184 20.925822
220 1 4 0.1829 31.747587 13.141136 19.397633
221 1 2 0.0078 32.118654 12.510634 17.198982
222 1 2 0.0896 32.174920 18.032667 19.373748
223 1 1 0.0872 27.196004 15.249402 23.569230
224 1 1 0.0278 27.741309 19.464571 22.900777
225 1 6 -0.379 31.398463 15.789873 22.767189
226 1 1 -0.2763 31.149900 20.307005 24.306648
227 1 1 -0.0632 27.528497 13.303902 25.012966
228 1 1 0.0279 25.539767 13.461168 23.594905
229 1 6 0.0586 27.733346 17.206622 23.962655
230 1 10 -0.379 27.666351 17.088541 21.913892
231 1 1 -0.0632 26.042125 14.643446 23.042522
232 1 11 -0.379 31.762892 16.142443 23.646073
233 1 1 0.0839 27.918326 14.588658 24.575576
234 1 1 0.3852 30.992384 19.752710 23.018480
235 1 1 -0.0632 31.194002 18.372557 22.833643
236 1 2 0.0896 28.805419 15.065244 24.976783
237 1 2 0.0078 27.494672 19.061954 23.877063
238 1 4 -0.3506 29.125791 13.154691 22.166604
239 1 11 -0.0632 27.575823 16.566718 23.194963
240 1 1 0.0277 28.002404 20.851692 22.757953
241 1 1 0.2886 31.539188 17.539590 23.910907
242 1 2 -0.0507 25.471546 15.129299 22.265038
243 1 2 0.0896 25.987951 11.793145 24.917199
244 1 1 -0.0645 26.324327 12.749548 24.531215
245 1 2 0.0839 31.008279 21.377979 24.441618
246 1 2 0.0872 30.735125 20.388008 22.173099
247 1 2 0.0866 31.082791 17.939787 21.846730
248 1 10 0.0866 28.154291 21.782323 23.949029
249 1 1 -0.0531 32.440878 13.786707 22.169379
250 1 2 0.2765 11.723688 11.312617 28.978340
251 1 2 0.3852 14.921139 12.620811 28.871993
252 1 4 -0.0632 12.817888 15.912815 28.641842
253 1 1 0.2886 16.615972 17.901218 25.100743
254 1 2 0.0866 17.123572 16.945724 25.152147
255 1 1 -0.0632 14.040412 20.854388 31.931347
256 1 6 -0.2763 13.319959 12.835058 29.175637
257 1 1 0.0277 17.582375 12.044925 25.451733
258 1 10 -0.043 13.388529 14.856539 28.851132
259 1 2 -0.3506 15.157416 17.387587 26.629778
260 1 1 -0.0091 15.500729 18.140941 25.920726
261 1 1 -0.0801 14.822451 19.364213 25.831733
262 1 10 -0.0531 17.826221 17.151871 28.505781
263 1 1 0.0872 14.005497 21.253826 30.582009
264 1 11 -0.2415 11.802106 20.213502 30.269514
265 1 1 -0.0507 17.575277 16.131509 32.026346
266 1 1 0.0078 15.534587 13.513820 28.854066
267 1 4 -0.0801 14.436164 14.791289 25.478940
268 1 2 0.0866 13.907208 19.499024 26.395282
269 1 1 0.0866 15.214850 21.586033 29.940885
270 1 4 0.2266 17.302298 18.239607 28.674472
271 1 1 0.0866 16.468467 20.852453 31.895504
272 1 1 -0.379 16.388278 15.564909 32.513091
273 1 1 -0.0531 17.696979 14.609047 28.765952
274 1 1 0.0896 16.450077 21.352112 30.578172
275 1 11 0.0277 12.728849 13.668076 29.123631
276 1 6 0.0077 12.014953 19.784077 31.162697
277 1 10 0.0078 17.639448 12.102283 29.014692
278 1 1 -0.2763 16.941194 13.424616 28.875418
279 1 10 -0.0801 12.752223 21.094891 29.758848
280 1 2 0.0587 17.416234 20.642581 32.382696
281 1 1 -0.0507 15.662165 15.928501 28.793414
282 1 1 0.0078 17.063170 15.869658 28.708895
283 1 1 -0.0092 14.887919 14.760022 28.833658
284 1 2 0.0896 15.161614 16.890194 28.759277
285 1 2 -0.2623 12.412993 16.247833 25.534668
286 1 4 0.0866 14.701350 12.051129 31.581535
287 1 4 0.1829 12.714414 21.485928 28.602967
288 1 2 0.0873 12.065079 18.678223 28.072324
289 1 12 -0.0632 17.746707 21.505884 29.839510
290 1 2 -0.0531 17.618895 17.197381 31.822125
291 1 1 0.0866 11.339676 13.403881 29.242668
292 1 10 -0.2763 14.362693 12.575903 32.629462
293 1 1 0.2266 16.303228 14.172895 32.700456
294 1 1 0.2266 15.264598 20.601232 32.576096
295 1 4 0.0839 12.428703 15.750364 32.795562
296 1 1 -0.043 12.114856 11.457629 32.592018
297 1 2 0.0896 17.370338 12.292421 32.632626
298 1 1 -0.0632 17.427230 13.363844 32.454115
299 1 2 0.0866 13.113054 20.610006 32.439375
300 1 2 0.0278 15.512851 16.185323 32.659169
301 1 6 0.1829 13.928855 21.716150 25.679079
302 1 2 0.0078 21.101166 15.846789 25.140775
303 1 2 0.0896 18.780675 14.540559 28.742952
304 1 1 0.0078 19.461995 19.164046 26.741384
305 1 2 -0.379 21.350137 21.566415 31.257772
306 1 1 0.2266 19.928319 17.981952 27.352341
307 1 1 0.2266 21.554111 19.333108 25.516528
308 1 4 -0.2514 18.839143 12.004708 28.839140
309 1 10 0.2266 20.873375 13.164272 30.997437
310 1 11 0.0866 19.066163 17.005522 27.909306
311 1 6 0.0866 19.371699 16.057066 27.728163
312 1 10 -0.0632 19.434019 13.753187 25.587825
313 1 2 -0.2514 21.086926 11.760151 26.621835
314 1 6 -0.0632 19.579908 11.710255 25.656983
315 1 1 -0.2514 18.688454 15.316090 31.757107
316 1 4 -0.0802 18.769666 20.951347 30.196395
317 1 11 -0.2514 18.920660 12.469428 25.531699
318 1 4 0.2266 21.116151 14.135452 30.304815
319 1 1 -0.0531 20.907706 13.816448 25.860264
320 1 4 -0.0521 18.755096 14.761068 25.483923
321 1 2 0.0278 19.570638 15.773715 31.331403
322 1 2 -0.0521 18.443026 19.509531 26.889389
323 1 1 0.0277 18.628153 13.920979 31.977549
324 1 1 0.2886 21.408787 20.527542 31.573476
325 1 2 -0.0632 19.937264 20.769085 25.371467
326 1 2 -0.2514 21.624574 16.729244 27.757286
327 1 1 -0.2763 21.267783 17.593317 27.197457
328 1 11 0.0278 19.733785 13.034981 31.788821
329 1 1 -0.0632 20.295254 19.861854 25.852749
330 1 1 0.0078 21.587495 12.701896 26.398311
331 1 1 -0.0632 21.618880 15.009853 25.602039
332 1 6 -0.0496 19.671472 12.190381 32.343258
333 1 1 0.1829 21.579587 17.840440 32.393920
334 1 11 0.2765 21.506489 16.504993 32.861329
335 1 1 0.0078 20.974300 20.159702 32.860956
336 1 10 0.1829 24.333130 21.600484 26.680356
337 1 10 0.0866 25.268980 15.640904 29.494331
338 1 6 -0.2514 23.928048 18.391883 25.441318
339 1 1 0.0277 22.033014 18.173488 26.158423
340 1 1 -0.0521 25.157267 18.104918 29.958855
341 1 1 0.0278 25.080198 18.614819 28.647544
342 1 1 -0.2623 25.215455 19.991523 28.402568
343 1 11 -0.2514 24.800625 16.756138 30.181569
344 1 2 0.0866 24.845969 17.943957 27.827553
345 1 1 -0.0531 22.001874 18.205328 31.095526
346 1 1 0.0866 22.990201 15.120651 25.918355
347 1 4 0.0078 24.825413 11.727398 27.651968
348 1 10 0.1829 23.699877 11.588678 27.211868
349 1 11 -0.2763 25.088378 20.500673 27.072527
350 1 10 0.0277 23.820136 16.364259 25.663954
351 1 2 -0.2623 23.528088 13.343985 31.326480
352 1 6 -0.2763 23.870349 16.669903 30.602120
353 1 1 0.0871 23.232214 12.305483 31.228651
354 1 2 -0.2763 24.725624 13.961315 26.590742
355 1 4 -0.043 24.517819 14.690165 29.364367
356 1 1 0.0872 23.647677 13.971040 26.412473
357 1 2 0.0839 22.168548 19.847922 29.677076
358 1 4 -0.2514 25.020470 16.244623 25.461496
359 1 1 0.0866 22.956052 12.774824 26.664037
360 1 11 0.0871 23.283510 17.655794 25.713818
361 1 2 0.2886 22.421265 17.471007 30.398497
362 1 1 0.2266 21.890513 19.549390 30.684155
363 1 1 0.0866 21.856250 12.033508 31.083819
364 1 4 -0.0507 23.693277 15.913696 32.802390
365 1 1 -0.0632 24.173964 11.252658 31.339324
366 1 1 -0.043 25.391258 18.972063 31.044808
367 1 6 0.2266 25.457852 19.929676 26.321898
368 1 1 0.2266 32.128394 17.595558 31.825578
369 1 1 0.0871 27.709993 16.508138 29.229199
370 1 11 0.0871 27.876492 21.226171 25.185970
371 1 1 -0.0531 27.043940 14.426003 28.207900
372 1 1 0.0839 30.195795 13.838927 32.063831
373 1 2 -0.2514 27.577766 17.349630 29.889572
374 1 1 -0.043 29.342521 15.158266 28.022947
375 1 2 0.0078 31.122799 17.800517 32.170685
376 1 6 0.3852 27.385692 20.345051 25.126652
377 1 1 -0.2514 27.825010 14.249482 32.239657
378 1 10 0.0871 28.728276 12.866763 27.193519
379 1 1 -0.0801 28.635061 12.299452 31.041726
380 1 1 -0.2514 27.573718 13.069847 31.518924
381 1 11 -0.2763 31.075179 11.798191 31.105689
382 1 2 -0.2763 25.433633 18.609508 32.075471
383 1 1 -0.0531 31.495423 19.496487 25.402801
384 1 1 0.0277 28.351672 14.205365 27.748992
385 1 6 -0.2763 25.681861 13.363666 30.793696
386 1 2 0.157 26.306481 13.648785 28.073230
387 1 6 -0.0091 31.149168 20.899068 26.903482
388 1 1 0.2266 28.664290 20.955417 27.521284
389 1 2 0.0078 25.638651 21.024680 31.644360
390 1 11 -0.2514 26.241612 12.673705 31.256860
391 1 4 0.0866 29.228725 12.026784 27.918142
392 1 6 -0.0531 31.954161 12.300740 31.089311
393 1 2 0.0078 30.370502 14.980669 27.715916
394 1 2 0.2266 28.958261 19.938469 27.320918
395 1 1 0.3852 31.651980 18.107504 25.198145
396 1 6 0.1829 31.040811 15.353109 29.936390
397 1 2 -0.2763 29.282060 20.784020 29.589398
398 1 10 -0.0531 25.648156 11.470717 31.606204
399 1 1 0.0866 26.683810 15.577711 28.939108
400 1 2 0.0873 31.995600 13.389273 27.356106
401 1 1 0.2266 29.028137 16.281803 28.808067
402 1 1 -0.0801 25.425153 20.853708 29.494863
403 1 2 0.0866 31.876751 17.474676 26.047683
404 1 1 0.0866 25.507156 20.348633 30.804985
405 1 1 -0.3506 28.836081 21.433356 28.833033
406 1 11 -0.2415 28.332685 12.540807 25.904675
407 1 1 0.2266 32.285790 16.843151 30.648647
408 1 2 0.0872 26.995867 14.865109 32.588398
409 1 11 -0.2514 31.162515 16.357764 29.941458
410 1 10 0.0078 30.137489 17.110648 29.383080
411 1 11 -0.0483 31.727932 20.098415 26.677535
412 1 4 0.0871 30.053200 18.323921 29.492386
413 1 1 0.0871 29.959438 12.646539 31.359449
414 1 1 -0.0521 28.130821 21.764219 26.493138
415 1 2 0.0839 28.385219 11.428741 30.458429
416 1 6 0.0839 28.521545 11.594721 25.599769
417 1 1 0.2266 29.139215 14.642788 32.506836
418 1 2 0.1829 31.206892 14.125736 32.308638
419 1 2 0.0839 17.240912 17.219203 35.866414
420 1 6 -0.0444 14.738455 19.615777 37.847162
421 1 1 -0.0483 11.590800 12.164046 35.278681
422 1 1 0.0866 15.643088 15.930072 36.577985
423 1 2 0.2266 18.115125 12.445906 38.667072
424 1 1 -0.043 17.256262 19.571716 38.098670
425 1 1 0.0866 16.369922 20.390454 38.806919
426 1 2 -0.2514 16.932908 21.727557 35.416714
427 1 2 -0.0521 12.580072 19.736572 37.597219
428 1 2 -0.0507 16.897787 18.655959 37.642303
429 1 1 -0.0632 12.820483 12.499827 34.669895
430 1 11 0.157 15.001910 20.004993 38.747078
431 1 1 0.0078 13.079832 12.181754 33.317840
432 1 2 0.2765 16.282567 15.414715 37.304405
433 1 1 -0.0521 12.798262 17.538349 40.190748
434 1 10 0.0278 14.175706 19.639625 39.799436
435 1 1 0.0896 11.344782 17.968088 37.812735
436 1 2 0.0871 13.586625 12.989277 35.257301
437 1 1 0.0896 15.363891 17.662690 34.875127
438 1 4 -0.0507 11.835094 13.520740 37.241937
439 1 1 0.2266 13.493459 16.176590 35.433702
440 1 6 -0.043 17.405487 13.176118 36.142662
441 1 1 0.0896 12.348472 18.874903 38.217965
442 1 10 -0.2623 15.222560 19.951490 33.931164
443 1 2 0.2765 13.891865 14.733267 37.031076
444 1 1 0.2266 13.069702 18.682587 39.414426
445 1 1 0.04 11.822195 16.597191 39.794267
446 1 1 0.0839 14.021376 17.274191 34.729715
447 1 2 0.0839 13.395882 17.796414 34.007512
448 1 6 0.0278 16.448961 18.420509 33.279698
449 1 12 0.0896 11.300271 12.567657 36.706785
450 1 1 0.0839 16.188290 16.957112 35.774536
451 1 11 0.1829 12.187976 15.722718 35.077936
452 1 11 0.0872 15.851530 18.714936 34.044335
453 1 1 0.0866 14.289942 15.547611 36.420918
454 1 11 0.0871 15.087247 13.618254 33.184524
455 1 4 0.2765 14.414595 20.338117 34.753902
456 1 6 0.0586 14.648572 14.128665 33.937426
457 1 2 -0.0801 12.862977 11.434220 38.733200
458 1 6 -0.0531 11.537699 15.599164 35.843680
459 1 10 -0.2514 11.702357 15.639367 33.772049
460 1 1 0.0872 16.846283 21.584361 39.399636
461 1 10 0.0872 11.550232 15.418886 40.700783
462 1 11 0.0871 20.488219 17.215835 38.435499
463 1 1 -0.0521 19.559994 15.367698 39.698931
464 1 10 -0.0632 19.430327 21.003238 34.668168
465 1 11 -0.0632 18.395395 13.392285 36.155624
466 1 1 0.1829 20.640070 12.933421 35.119213
467 1 1 0.04 18.583886 19.958337 37.918726
468 1 4 0.0872 18.774279 19.982850 34.782465
469 1 2 -0.2514 19.225223 19.351196 37.299525
470 1 6 0.1829 20.610240 16.253141 33.259723
471 1 2 0.2266 20.086304 21.420876 38.253923
472 1 1 -0.0632 18.913221 14.127482 39.765447
473 1 1 0.0871 18.571827 13.435773 38.592484
474 1 10 -0.2623 19.197707 12.559197 35.389687
475 1 1 0.04 18.809184 14.043013 37.341268
476 1 1 -0.0531 19.395015 15.318938 37.279190
477 1 1 0.0278 19.820193 15.964635 38.456792
478 1 11 -0.2514 20.437460 21.147620 33.726621
479 1 2 0.2886 19.295736 18.050195 40.759094
480 1 2 0.0278 19.867540 15.856819 40.617891
481 1 2 -0.0801 20.157902 14.899437 34.376140
482 1 2 -0.0521 20.758824 18.516701 34.260791
483 1 1 -0.0801 21.079156 18.818261 33.266323
484 1 2 -0.0531 19.523414 15.798284 36.314674
485 1 2 -0.2514 18.690472 13.702974 40.732765
486 1 10 0.0872 21.419408 17.649231 37.497209
487 1 1 -0.0531 19.059170 21.149379 38.476536
488 1 6 -0.2763 20.268669 17.826781 39.222080
489 1 1 0.3852 20.954933 14.180801 34.546456
490 1 4 -0.0801 18.724093 11.553599 34.892191
491 1 1 0.0587 21.670263 11.978256 35.190565
492 1 4 0.0078 21.723527 16.990934 36.514763
493 1 2 0.0278 21.829582 18.974996 39.880856
494 1 1 0.0866 22.155759 19.552437 39.025329
495 1 2 -0.2623 24.729650 18.653417 38.770943
496 1 1 0.0872 23.062907 21.006654 36.799727
497 1 6 0.0896 24.441635 16.374058 35.414842
498 1 1 0.157 24.768911 13.450168 39.215596
499 1 1 -0.0645 24.098114 14.672451 39.409619
500 1 1 0.1829 24.133441 15.645114 38.400093
501 1 1 0.0277 24.846013 15.417993 37.209805
502 1 11 -0.2514 24.980528 16.470524 36.268554
503 1 2 0.0866 23.654503 16.605362 38.564338
504 1 2 0.1829 24.274176 13.756410 33.869498
505 1 1 0.1829 22.518472 19.725587 36.638472
506 1 2 0.0839 24.782057 12.701406 40.000936
507 1 1 -0.2514 22.032742 19.000881 37.735107
508 1 1 0.1829 23.153012 21.558066 38.091742
509 1 1 -0.0531 22.727221 20.827852 39.220410
510 1 11 0.2266 23.461752 14.993009 40.636396
511 1 10 0.0866 22.561420 15.678894 33.185621
512 1 7 0.157 25.288238 11.678574 34.885548
513 1 10 0.0078 22.861814 21.378698 40.620091
514 1 2 0.0078 22.449747 19.297608 35.644670
515 1 4 0.0872 23.678751 21.218479 34.495178
516 1 1 0.0872 23.273452 13.543416 34.246617
517 1 1 -0.2763 22.979910 12.280193 34.780740
518 1 1 -0.2415 22.247891 14.478198 34.047704
519 1 12 0.0866 23.543029 21.745037 35.586651
520 1 1 -0.2763 25.475610 13.210530 38.023441
521 1 1 -0.043 25.489910 14.181014 37.008587
522 1 9 0.0871 31.430885 16.994487 40.212129
523 1 2 0.0866 30.944583 13.122744 39.659468
524 1 7 0.0839 30.477375 17.142518 40.345279
525 1 1 -0.0632 31.394324 20.116035 36.554281
526 1 4 -0.2514 30.584772 17.006598 38.109902
527 1 1 0.1829 31.676990 20.566965 37.864044
528 1 2 0.0871 28.736747 13.869120 35.801819
529 1 2 -0.2514 26.037042 13.972949 36.092675
530 1 2 -0.0632 29.360274 15.546896 33.067701
531 1 1 0.0866 32.103328 12.002663 36.234963
532 1 1 -0.0521 27.795686 18.192187 40.183250
533 1 1 -0.0632 32.099102 13.403968 36.203788
534 1 6 0.1829 27.381231 11.980329 39.571365
535 1 1 -0.0632 26.416152 17.822742 37.747939
536 1 10 -0.2763 25.687007 17.650237 36.449073
537 1 1 0.0278 25.774371 18.395473 38.852198
538 1 1 -0.3506 29.688297 13.345069 35.904105
539 1 1 -0.0531 31.413272 12.139928 39.631332
540 1 1 0.0078 27.419311 21.795772 35.684101
541 1 1 -0.0531 30.869990 14.078909 36.095780
542 1 2 -0.3506 26.801678 21.217029 40.194129
543 1 2 -0.3506 28.823916 11.355111 35.689027
544 1 12 -0.2763 29.933993 17.264378 39.109237
545 1 1 0.0587 29.715849 11.944999 35.857412
546 1 1 0.0896 28.470603 17.641850 39.063428
547 1 1 0.0871 27.752317 21.150958 36.886323
548 1 2 -0.2763 29.005439 14.468899 40.509172
549 1 1 0.2765 27.760467 17.455126 37.856582
550 1 1 0.0872 26.434048 18.561749 40.080808
551 1 4 0.0871 25.653225 18.543315 35.620051
552 1 1 0.3852 28.852061 21.591523 37.639020
553 1 2 0.2266 28.246697 17.024032 36.990136
554 1 4 -0.2415 30.994588 19.546279 33.742149
555 1 11 0.0866 29.340212 20.842671 38.739162
556 1 2 -0.2763 27.229066 20.249277 37.173313
557 1 4 0.0866 31.015616 20.229104 40.125577
558 1 2 0.2266 30.432833 19.652426 36.327177
559 1 10 0.157 30.664189 20.492255 38.988421
560 1 1 -0.0801 32.364096 20.227225 35.535466
561 1 2 0.0277 30.815976 15.161630 36.152219
562 1 2 -0.0092 25.997776 12.269909 37.876004
563 1 1 0.157 30.917594 11.270297 36.067381
564 1 10 0.1829 32.116281 19.586339 34.205638
565 1 11 -0.0632 28.357260 11.937123 39.861202
566 1 2 0.0872 26.578689 21.438930 35.095303
567 1 6 -0.0632 28.705870 20.763853 39.522848
568 1 4 0.0078 14.447060 19.890596 40.961490
569 1 1 0.0078 16.008459 14.015344 42.852331
570 1 2 0.0401 12.102076 12.710452 42.007295
571 1 2 0.1829 17.145730 18.556835 41.996183
572 1 2 0.1829 13.357850 17.352500 41.107717
573 1 2 0.0871 16.548480 14.282096 41.950729
574 1 2 -0.0632 14.099396 14.222244 41.909658
575 1 1 -0.043 14.611649 13.974435 42.833586
576 1 4 -0.2514 11.987579 15.432342 41.834383
577 1 1 -0.0521 18.104845 18.681738 42.486235
578 1 2 -0.0531 12.816011 13.647866 43.980778
579 1 1 0.0839 14.444175 17.188434 44.271339
580 1 1 -0.2514 16.711418 13.748310 44.033240
581 1 1 0.0077 14.511185 20.862343 45.315286
582 1 11 -0.0444 14.389915 15.743050 47.706493
583 1 6 -0.0531 16.349295 20.133412 43.856028
584 1 7 0.2266 17.943961 12.272883 48.204345
585 1 4 0.0872 17.195634 18.700618 46.544528
586 1 2 0.0277 14.713386 20.821210 44.250103
587 1 1 0.0586 13.201669 12.065008 48.573414
588 1 1 0.0277 13.075692 21.568970 47.139200
589 1 2 0.0839 15.741593 15.933125 45.447406
590 1 4 -0.0521 15.249767 11.580263 47.486577
591 1 10 0.0866 14.170472 12.136939 47.417364
592 1 1 -0.0801 13.258036 17.931586 44.257624
593 1 1 -0.2763 18.145285 19.124084 43.823288
594 1 6 -0.2763 11.862081 19.928819 45.661898
595 1 1 -0.2514 15.998457 13.347931 45.184254
596 1 1 -0.0531 14.581921 13.266656 45.172050
597 1 2 -0.0531 16.547349 13.121165 46.087424
598 1 11 -0.0091 11.479410 19.019466 45.440148
599 1 9 -0.2514 17.281672 12.930772 47.939521
600 1 1 -0.2514 11.823021 12.296229 48.391334
601 1 2 0.0866 11.417188 12.498596 47.402867
602 1 1 -0.0521 14.986392 20.153774 47.594978
603 1 2 0.04 16.311707 14.236042 48.243156
604 1 1 -0.0507 13.858215 20.852958 48.060339
605 1 1 0.1829 13.898887 13.626847 43.995896
606 1 6 -0.0483 14.801661 14.850095 47.463157
607 1 11 0.0872 16.949835 19.574656 44.450331
608 1 1 0.0896 15.324586 20.146085 46.224205
609 1 11 -0.0531 18.127831 13.884294 43.984686
610 1 1 -0.2763 13.405731 21.607261 45.771653
611 1 2 0.0078 12.200946 17.363528 47.445455
612 1 11 0.0839 13.799103 12.906273 46.318443
613 1 2 0.2266 15.586375 19.605452 48.311208
614 1 6 0.0871 12.851913 13.270079 46.326578
615 1 1 -0.0632 14.816523 16.498389 45.435197
616 1 1 0.0896 12.469905 18.015094 45.406736
617 1 1 0.1829 14.000331 16.521824 46.581059
618 1 10 0.1829 16.554365 19.393793 45.771704
619 1 1 -0.2763 12.831320 17.300626 46.563223
620 1 2 0.0078 15.089862 17.175787 43.397307
621 1 2 0.2266 12.957388 18.516650 43.402279
622 1 2 0.0866 13.657859 11.253750 41.091355
623 1 4 -0.0531 22.148632 13.156652 40.905638
624 1 2 0.0278 21.450716 18.328371 41.910158
625 1 2 -0.2514 20.457798 13.369547 42.818759
626 1 1 0.0078 19.298260 18.398970 41.791372
627 1 1 -0.2514 20.530589 18.556847 42.437003
628 1 2 -0.2763 20.467713 16.513138 45.804896
629 1 1 -0.043 20.314677 14.849983 44.407614
630 1 4 0.0871 18.628882 14.638075 46.090343
631 1 1 -0.0632 20.577960 18.933035 43.790457
632 1 2 0.04 19.442773 19.477498 45.531264
633 1 1 -0.0531 21.547537 19.600805 48.073776
634 1 10 -0.2763 18.988304 14.381227 44.953072
635 1 11 0.0866 21.807390 18.974843 44.495161
636 1 1 0.2765 19.389097 19.188772 44.487233
637 1 1 -0.043 20.924395 15.991728 44.963756
638 1 1 -0.0802 21.509853 20.865887 48.693875
639 1 2 0.0866 21.110407 19.462167 47.093472
640 1 4 0.0278 20.494904 11.316856 44.212180
641 1 4 0.0866 18.926758 21.198315 47.768853
642 1 1 0.1829 20.898554 14.254154 43.264196
643 1 7 0.0839 20.328212 11.497475 46.414923
644 1 6 0.2266 18.521339 13.818861 43.051509
645 1 9 0.0278 19.531634 11.489084 46.970983
646 1 10 -0.0632 22.558344 14.217435 41.345482
647 1 6 -0.0507 23.731541 15.880733 41.040164