LAMMPS data file via write_data, version 29 Oct 2020, timestep = 100000

4500 atoms
16 atom types
3000 bonds
19 bond types
1500 angles
24 angle types
0 dihedrals
42 dihedral types

0.02645 35.5328 xlo xhi
0.02645 35.5328 ylo yhi
0.02641 35.4736 zlo zhi

Masses

1 12.01
2 1.008
3 12.01
4 16
5 14.01
6 1.008
7 16
8 14.01
9 1.008
10 12.01
11 14.01
12 12.01
13 1.008
14 16
15 16
16 1.008

Pair Coeffs # lj/cut/coul/long/omp

1 0.086 3.39967
2 0.015 2.59964
3 0.086 3.39967
4 0.21 2.95992
5 0.17 3.25
6 0.0157 1.06908
7 0.2104 3.06647
8 0.17 3.25
9 0 0
10 0.086 3.39967
11 0.17 3.25
12 0.086 3.39967
13 0.0157 1.06908
14 0.2104 3.06647
15 0.1521 3.157
16 0.015 2.058

Atoms # full

3488 1163 16 0.415 5.106871729769037 6.701726400251118 5.004372120602246 1 1 1
631 211 15 -0.83 2.889899451288533 5.457117428762529 1.7432893062864248 1 0 0
1294 432 15 -0.83 2.6364823387635314 8.764625944152558 7.101169485199741 0 -1 0
2360 787 16 0.415 7.954870460413151 0.8959812655847911 7.810437528245806 0 0 0
2949 983 16 0.415 1.8217686436154148 0.8722232182681807 3.302272537425436 1 1 0
1022 341 16 0.415 4.997199801520847 0.6171893348485847 7.309267795409051 0 0 0
417 139 16 0.415 2.1625817982337727 6.280946731462809 7.3030512674848085 0 0 0
2126 709 16 0.415 6.734840916734797 1.7111763717621296 4.151156487041659 1 0 1
855 285 16 0.415 3.736893715943496 2.1887415031249926 5.669518462472241 0 0 0
3593 1198 16 0.415 4.420221681305414 3.141961454381382 3.365200083384701 1 1 0
416 139 16 0.415 0.9916600782429347 5.322800715120805 7.250195551680681 0 0 0
2140 714 15 -0.83 6.611840575743777 3.928065648789446 7.245581775446034 0 1 0
208 70 15 -0.83 0.4738766482506046 2.5950742265446314 6.729358970907107 0 1 0
1023 341 16 0.415 5.439706483101753 1.662858706233038 8.310596175179693 0 0 0
854 285 16 0.415 3.2353205894754518 3.6141842078311353 5.57768896369836 0 0 0
633 211 16 0.415 2.049381993218959 5.5457299380609175 1.2939452688467876 1 0 0
3901 1301 15 -0.83 0.028737689668275834 6.881072708822525 1.2829163272816912 0 0 1
907 303 15 -0.83 7.726774163809124 8.463957152460491 0.6558152918223729 1 0 1
195 65 16 0.415 7.707969476923461 7.591125604500208 2.824010225621596 1 0 0
632 211 16 0.415 3.269829218895671 4.654660463942587 1.3855910689564037 1 0 0
1021 341 15 -0.83 5.738520003437908 1.1759891433920797 7.542546479673542 0 0 0
3010 1004 15 -0.83 8.48644427861839 6.709333010538492 6.747124734907224 0 0 1
193 65 15 -0.83 8.278065350894158 7.926354847905519 3.5159956895603286 0 0 0
2125 709 15 -0.83 6.158670352225091 1.0807038836415228 4.583318202490105 1 0 0
2825 942 16 0.415 6.2902513581691855 3.36262273067563 1.1161620161755317 0 1 0
3592 1198 15 -0.83 4.481378411803201 2.8014577744419555 2.472704175314302 1 1 0
4246 1416 15 -0.83 7.671532263556975 3.769073789655208 4.209854859742761 1 1 0
153 51 16 0.415 7.6541819289022275 5.215484629500027 0.6179937532903369 0 1 0
194 65 16 0.415 8.342316986076536 8.865088765940873 3.3402623791549004 1 0 0
1531 511 15 -0.83 1.632664742325134 2.012989950856066 0.3749816534750722 0 0 0
2826 942 16 0.415 5.205620264394814 3.156511584138927 0.08031030877889953 0 1 0
3487 1163 15 -0.83 5.4862409302523 5.835363283641554 4.856975412762653 1 1 1
2824 942 15 -0.83 6.148528965839218 3.0651620389287393 0.21746088650093814 0 1 0
2364 788 16 0.415 2.871454003124441 8.485884967208301 1.615218065930441 1 0 0
2537 846 16 0.415 2.076159413147524 0.37985877693619713 7.91979041000511 0 0 0
3902 1301 16 0.415 0.2805127859022919 7.732344540552267 1.640935029262555 0 0 1
1677 559 16 0.415 0.34373103171699415 8.144596142023131 7.807546645966629 1 0 1
2947 983 15 -0.83 2.2989042751304436 1.3266392903257938 3.9965919352680053 1 1 0
151 51 15 -0.83 8.015709991639007 5.180088875452621 1.5035875818426272 0 1 0
304 102 15 -0.83 2.6886815935540564 7.159861146328363 4.435288923651182 1 0 1
3489 1163 16 0.415 5.640372901273013 5.488224474307772 5.735593532994934 1 1 1
2897 966 16 0.415 3.6406553668603383 4.1577409015273865 7.795555715787833 1 1 0
2948 983 16 0.415 2.317411606049415 0.7032426423895677 4.72272271793095 1 1 0
4247 1416 16 0.415 8.147960762865962 3.903447753215724 3.390592169434402 1 1 0
1675 559 15 -0.83 0.34409472617108816 7.594371724470796 8.590799345259692 1 0 0
540 180 16 0.415 4.7835985627056115 7.241473377652946 3.199697372087812 0 1 1
539 180 16 0.415 4.798806768003436 8.755076638789292 3.2255636880163094 0 1 1
415 139 15 -0.83 1.9191180020378524 5.397775577336421 7.025623981191481 0 0 0
305 102 16 0.415 2.286058871853533 7.094749393289133 3.5693286251087426 1 0 1
210 70 16 0.415 1.384701563755314 2.329052678541149 6.603413243974748 0 1 0
306 102 16 0.415 2.2436602905158334 6.492531686418475 4.957648251105069 1 0 1
209 70 16 0.415 0.32240058247784675 2.495008841217706 7.669185411197682 0 1 0
538 180 15 -0.83 5.2301007629720475 8.000497428881225 2.8245305917027994 0 1 1
1158 386 16 0.415 4.245381380600439 7.5128523963060605 8.140427651658422 1 1 0
853 285 15 -0.83 4.036804317666943 3.0977131027853315 5.662029118539916 0 0 0
3594 1198 16 0.415 3.8478742031843725 2.084406210556009 2.4454770479928514 1 1 0
152 51 16 0.415 8.778865406996456 5.757132592517501 1.4744981161276531 0 1 0
2142 714 16 0.415 6.035188690195114 3.212825445516116 6.97700052483782 0 1 0
2141 714 16 0.415 7.492694546548107 3.5562772375727243 7.19973965542879 0 1 0
2127 709 16 0.415 5.943400382389187 1.4881566401825503 5.422289550202418 1 0 0
4248 1416 16 0.415 7.0261328715582145 4.475651439553413 4.2308184914465405 1 1 0
2896 966 15 -0.83 4.026051885509808 4.093434270014948 8.669378356027424 1 1 0
3957 1319 16 0.415 0.4838576513313826 3.9149815488961965 3.1087976388649627 0 0 0
2536 846 15 -0.83 2.6908309471706566 0.3421081430693001 7.186997395728188 0 0 0
1532 511 16 0.415 1.6027064848758783 2.9094090104287273 0.04066567150082472 0 0 0
3012 1004 16 0.415 7.947030970737876 5.920961608716251 6.808244741681617 0 0 1
2232 744 16 0.415 8.489493733902368 0.9220886401883512 1.8529838493775193 0 1 0
909 303 16 0.415 6.917304273849956 7.95362231677676 0.6792394045631543 1 0 1
1295 432 16 0.415 2.7060195015969195 8.688209355765304 6.149561939755541 0 -1 0
2359 787 15 -0.83 8.71186147255344 1.296183924347042 8.238262580602678 0 0 0
3979 1327 15 -0.83 1.8765436955905124 1.9118264721096379 10.093066976087012 0 1 0
4074 1358 16 0.415 2.580072303194254 5.34231028305638 10.974250360274802 0 1 0
3501 1167 16 0.415 3.9905007409746163 2.9802218711540465 17.099500014769756 0 0 0
1814 605 16 0.415 1.9048748367269839 2.4308855495387633 13.842446481730498 0 0 0
1813 605 15 -0.83 2.4855377031329526 2.8381590510920316 13.199647317772373 0 0 0
4072 1358 15 -0.83 1.7507450618525902 5.201637606075273 10.5174579689402 0 1 0
35 12 16 0.415 8.176489011835091 0.5859987079092353 16.644330323058952 1 1 0
3500 1167 16 0.415 4.888958758595789 4.197556702771383 17.152075205147867 0 0 0
350 117 16 0.415 5.500650061317206 4.298493599931238 14.167758346558646 0 0 1
440 147 16 0.415 5.847075354410724 7.437643241900925 15.074295454466705 1 0 0
439 147 15 -0.83 5.437369028366614 8.283624704248107 15.255093486697806 1 0 0
2737 913 15 -0.83 7.485427672820623 6.168385243048047 14.432554837448409 1 1 0
2738 913 16 0.415 7.904583939975536 6.25006169706829 13.575893412717251 1 1 0
1157 386 16 0.415 5.293772355947535 8.168057550709621 9.01419976977515 1 1 0
307 103 15 -0.83 6.623794813607915 2.3102340621393025 10.693780538533309 0 0 0
4459 1487 15 -0.83 0.6048787891048222 0.4739904735614095 13.040131325967375 0 1 1
1923 641 16 0.415 4.899134593566503 6.534617847065755 16.753074634926897 0 1 0
1006 336 15 -0.83 0.049978031898570426 7.443577268334576 11.933986764574113 1 1 1
7 3 15 -0.83 0.9146884021420607 2.4242249932540223 16.203862565249267 1 1 0
2416 806 15 -0.83 2.2040099383590794 5.66739827972035 16.832188752534385 1 1 0
3766 1256 15 -0.83 5.594380850607323 4.994823831491721 12.005756055893722 0 0 0
299 100 16 0.415 2.6703551306432853 7.893373615938008 12.580941791254524 0 0 0
9 3 16 0.415 1.4573027130337743 1.7049351732192737 15.880716050320066 1 1 0
1071 357 16 0.415 5.621397324132408 8.801829581212536 11.945633123527903 0 0 0
356 119 16 0.415 4.845070595415554 0.6635281990623633 16.576873123090543 0 0 0
1978 660 15 -0.83 7.0817282061188624 1.2161954812718425 13.672628323326588 0 0 0
3767 1256 16 0.415 6.430574647392214 5.256189357243596 11.620139901657613 0 0 0
1815 605 16 0.415 2.6747997205995167 2.141068172782086 12.571574049838313 0 0 0
2072 691 16 0.415 8.699032485533978 1.5943461736509636 11.695111764062647 0 1 0
351 117 16 0.415 4.217575642883063 3.649502716285714 14.641494604917886 0 0 1
355 119 15 -0.83 4.015966643183519 0.6685578434412605 16.09854982772193 0 0 0
2432 811 16 0.415 6.822847667909971 4.066193544851014 16.411604189970042 0 0 0
1069 357 15 -0.83 6.15251667449491 8.067962332329062 12.254798016948781 0 0 0
1007 336 16 0.415 0.7215571989936648 7.905903920639633 12.435451944146353 1 1 1
1008 336 16 0.415 0.5393485218889513 6.829058421422253 11.387072740021756 1 1 1
3981 1327 16 0.415 1.8901164640992727 0.9554915416498281 10.131422171415661 0 0 0
441 147 16 0.415 5.846031783530489 8.88593230669489 14.633440747439039 1 0 0
2431 811 15 -0.83 7.325431473131172 4.576798142676701 17.04636736351935 0 0 0
2739 913 16 0.415 7.9852362447302525 6.7541898971875405 15.001110986072385 1 1 0
8 3 16 0.415 1.133574151066009 2.4911578312969933 17.13329296213018 1 1 0
34 12 15 -0.83 7.254070840171618 0.3526601212627954 16.539785332523714 1 1 0
2433 811 16 0.415 7.769073610072743 5.242856598868741 16.521220135055717 0 0 0
4165 1389 15 -0.83 0.1543341465654803 4.998819802835355 14.771567019339004 1 0 0
4073 1358 16 0.415 1.7927143518813726 4.293435429702978 10.218059904950602 0 1 0
1979 660 16 0.415 7.642337590808962 1.8126369525195922 14.168820335287887 0 0 0
4167 1389 16 0.415 0.5043187264255616 4.550003338310095 15.54118146660175 1 0 0
984 328 16 0.415 2.775007020484655 5.787316136551596 14.530951600362833 0 0 0
983 328 16 0.415 2.276644268060441 5.108147301895789 13.273072653124794 0 0 0
3768 1256 16 0.415 5.209601784211213 5.812507548759288 12.321303571333013 0 0 0
349 117 15 -0.83 5.082052769583494 3.9272622974364686 14.944414942342691 0 0 1
379 127 15 -0.83 0.9120531713851066 8.1586741478531 14.897689681390931 0 0 0
906 302 16 0.415 7.591564498427682 7.013928971228038 9.524069258757164 0 -1 0
982 328 15 -0.83 2.7074162622526163 5.904626929480836 13.583374965208675 0 0 0
3980 1327 16 0.415 2.7922190432101632 2.159918472044169 9.96570586982658 0 0 0
904 302 15 -0.83 7.733291928748208 6.080483815935004 9.681629746950785 0 -1 0
309 103 16 0.415 6.360324104540049 2.2855936758226547 11.613676094873233 0 0 0
298 100 15 -0.83 2.7233208208669297 8.840942699422966 12.705598523313817 0 0 0
381 127 16 0.415 1.1165863230913609 7.224049889973215 14.868100326739462 0 0 0
1980 660 16 0.415 6.4681464152717565 0.8690942143653735 14.320138888412108 0 0 0
308 103 16 0.415 6.143769501556837 3.0524472479185074 10.326456272799126 0 0 0
2417 806 16 0.415 2.028840184152621 6.52438312190637 17.220935904196146 1 1 0
905 302 16 0.415 6.853366013453089 5.718342164043216 9.785628020220864 0 -1 0
1922 641 16 0.415 6.0989543721622175 6.5447405213853935 17.676235071422937 0 1 0
3944 1315 16 0.415 0.6033673927800701 3.3951949937011947 11.941006653183704 1 1 1
1070 357 16 0.415 6.913290159063137 8.478624562364544 12.665665485962116 0 0 0
1921 641 15 -0.83 5.142029529805708 6.5219414746998385 17.67885710791331 0 1 0
2361 787 16 0.415 8.432776008953677 1.4297396595922922 9.144080452262674 0 0 0
1676 559 16 0.415 1.099203701018834 7.896164458999054 9.095738372085945 1 0 0
4461 1487 16 0.415 0.5436785584907922 0.773711759967185 12.133128851152264 0 1 1
2898 966 16 0.415 4.274726223841244 4.991378803295871 8.888669232759685 1 1 0
2418 806 16 0.415 2.8060760755370313 5.244622151113466 17.44456814405254 1 1 0
3499 1167 15 -0.83 4.362155038136221 3.6211014723236894 17.7056173772375 0 0 0
1156 386 15 -0.83 4.698441085889168 7.419370516484157 8.978419202213955 1 1 0
3027 1009 16 0.415 3.328076029879915 5.657225189890579 23.51038306058325 0 0 0
997 333 15 -0.83 5.986132879398485 6.140717733640228 20.924035073345873 1 1 0
322 108 15 -0.83 8.30206104581347 1.3720806553816727 22.10143102627005 1 1 0
762 254 16 0.415 0.11746467289735892 6.53167505263893 25.192376370131218 1 0 -1
1710 570 16 0.415 7.748060305080943 3.3754081447303648 19.306167698526806 1 0 0
1736 579 16 0.415 3.900924989362695 1.613095782082737 20.757068836113213 0 0 0
4158 1386 16 0.415 4.3118116995556806 8.268457331454846 25.66848774411394 1 0 0
3880 1294 15 -0.83 0.7828572812402977 6.427939697977257 19.657775800798458 1 0 1
2103 701 16 0.415 6.340953597499968 0.7089276751661843 19.812419684429177 0 0 0
160 54 15 -0.83 0.9151676286997276 4.402402158891557 22.615216590634827 1 0 0
1875 625 16 0.415 0.9819398490870043 3.7898936140847725 24.958054548647453 2 0 0
3070 1024 15 -0.83 6.02360958611341 3.2528843044933646 24.577506484608477 0 1 0
4269 1423 16 0.415 1.9624250786622655 0.4766477989630162 25.71168388409078 0 0 0
1481 494 16 0.415 2.103251763163109 0.4441918098933714 21.920350990403143 1 1 0
3972 1324 16 0.415 4.216069418258558 8.444414631479283 21.63131108187214 0 0 0
3026 1009 16 0.415 3.374247242104435 4.1485796336936485 23.393114248840764 0 0 0
3071 1024 16 0.415 5.622104377861775 4.107540421145439 24.420699821038255 0 1 0
324 108 16 0.415 7.610498177415122 1.9311237480089576 22.45561091206244 1 1 0
1874 625 16 0.415 1.476177570668066 3.18194275555656 26.253438665009618 2 0 0
3072 1024 16 0.415 6.55959618669456 3.379540163363527 25.360391213917854 0 1 0
3690 1230 16 0.415 2.07573937441685 8.00725632350237 24.99271711895241 1 1 0
2883 961 16 0.415 5.951616100244573 7.0558608633108255 24.66043486123153 0 1 0
2275 759 15 -0.83 5.915127812078712 0.14289680365144145 24.147588868426205 0 1 0
1708 570 15 -0.83 6.946575457147739 3.3019898688774214 19.824302422083935 1 0 0
3970 1324 15 -0.83 3.54130499447302 8.614824720394177 20.974131364962705 0 0 0
1709 570 16 0.415 6.240174324698346 3.453746585362223 19.196449595402225 1 0 0
1735 579 15 -0.83 3.6677794174781835 2.448465037848216 21.162078935370985 0 0 0
162 54 16 0.415 1.1301947929468228 3.4969458068709183 22.39128819555406 1 0 0
2276 759 16 0.415 6.292331518500959 0.9754944987769804 24.431719619090906 0 1 0
2882 961 16 0.415 5.894638152217024 5.974363274332616 23.60260139644318 0 1 0
1277 426 16 0.415 3.3418419083176865 5.098971800905997 21.091759074179556 0 1 0
2101 701 15 -0.83 5.460430043078001 0.4522372221063584 19.53852170204698 0 0 0
1276 426 15 -0.83 3.2355826891550663 5.258142011298048 20.15388612706353 0 1 0
1873 625 15 -0.83 1.769949761006313 3.45152298607062 25.383233954986128 2 0 0
3025 1009 15 -0.83 3.878865343755899 4.938641588382931 23.199737651290476 0 0 0
4325 1442 16 0.415 8.064108175644158 5.341505883633051 25.18471942983881 1 0 0
271 91 15 -0.83 1.5404052870592064 1.7609194684000804 19.050265607512046 1 0 0
147 49 16 0.415 4.256486614416331 1.8059010752644948 25.703534697085313 0 0 0
3881 1294 16 0.415 1.7134656965594017 6.595528235978171 19.509068377281693 1 0 1
272 91 16 0.415 2.4936003004361424 1.8317405888731113 18.9989287427001 1 0 0
3157 1053 15 -0.83 2.6325261518163785 8.464508484152823 18.161557400675452 1 1 1
273 91 16 0.415 1.3327832228977885 1.9716300719233792 19.960609475846635 1 0 0
999 333 16 0.415 5.279706815424772 6.347818931472532 20.312231884243808 1 1 0
998 333 16 0.415 6.043489889351135 5.185342646675041 20.909876838741884 0 1 0
183 61 16 0.415 8.413663760490435 6.98753613930613 21.585184743042504 0 0 0
3218 1073 16 0.415 0.908031974666871 8.88523110758614 19.936496842204605 1 0 0
3882 1294 16 0.415 0.7562464711569731 5.5574510177911325 20.05498248505663 1 0 1
1482 494 16 0.415 2.8864049031744843 0.09766996595074941 23.168745536726206 1 1 0
1278 426 16 0.415 3.7027918962508366 4.536187949933208 19.733493773773766 0 1 0
3689 1230 16 0.415 2.254456598226598 7.818174703000154 23.501340755829133 1 1 0
3688 1230 15 -0.83 2.7306918953087194 7.785001993493704 24.330998119307914 1 1 0
2881 961 15 -0.83 6.4455552180832925 6.316123233777223 24.306818946138097 0 1 0
3158 1053 16 0.415 3.1590923477021917 8.023860372282726 18.828482514657306 1 1 1
182 61 16 0.415 8.43831264172339 5.555284946519395 21.095343816566544 0 0 0
1737 579 16 0.415 4.436450647490928 2.6867042874465867 21.680363049958522 0 0 0
657 219 16 0.415 7.1743165964691435 8.205125415123877 27.21546773337434 0 0 0
961 321 15 -0.83 8.766001033946955 6.466688185921421 34.232164210948916 0 1 0
146 49 16 0.415 3.8305267181915927 2.802820530582983 26.760229969700855 0 0 0
963 321 16 0.415 8.67957453661016 5.825470053485923 33.52675543493328 0 1 0
1722 574 16 0.415 6.4398474824217695 0.5514126526693749 31.723120270708545 0 1 -1
2312 771 16 0.415 4.933305158341844 3.376239935144132 29.00643391102147 1 1 0
2358 786 16 0.415 0.7672966615158597 3.418214875659961 31.27863116165 1 1 0
400 134 15 -0.83 7.052493160142393 0.2114844319601444 27.69425639114096 1 0 0
1977 659 16 0.415 1.6169986235659184 6.3436990198290815 27.00711003030545 1 1 0
3028 1010 15 -0.83 3.3469701040540207 4.201443379533959 34.59587470876687 0 0 -1
142 48 15 -0.83 2.190601674699069 8.370428842680845 33.213619881736 1 0 0
1341 447 16 0.415 4.658753923047054 1.1170460047751225 33.52427520597425 0 0 0
2610 870 16 0.415 5.175727605024174 5.5306241548107895 30.997114029601008 1 0 0
4110 1370 16 0.415 0.15929165422313218 7.6961082615611085 33.48989877625199 0 0 -1
3556 1186 15 -0.83 7.020540937315111 8.395645752146569 31.714732913419418 0 0 0
1689 563 16 0.415 8.311020388152834 5.918541750498763 27.82234917910444 0 0 1
2755 919 15 -0.83 6.622277946213723 4.422441523864697 32.538970352411255 1 0 0
3942 1314 16 0.415 2.5351721984317055 2.7060142036152866 32.013424899396846 0 1 0
2356 786 15 -0.83 0.5277538598725253 2.6634327058586633 30.7408998704717 1 1 0
1976 659 16 0.415 2.1571932734984447 7.517949735832604 27.795285253668293 1 1 0
2313 771 16 0.415 6.166269741981158 2.669323790596786 29.52793471556234 1 1 0
2756 919 16 0.415 6.287506062392541 3.649490129438201 32.99361938812314 1 0 -1
3030 1010 16 0.415 4.053921271081296 4.162165311841392 33.9517403238084 0 0 -1
3155 1052 16 0.415 5.493421161733478 8.418539025348078 28.975496231867908 0 1 -1
2608 870 15 -0.83 5.202132296015495 6.320605249394561 30.45723950631491 1 0 0
1340 447 16 0.415 4.80622313507726 0.6170952687707237 34.945611645997545 0 0 0
1721 574 16 0.415 5.478539119824359 1.6055346255259586 31.216555097835087 0 1 -1
3941 1314 16 0.415 3.492321725080946 3.4565082275433436 31.11202671818455 0 1 0
3558 1186 16 0.415 6.878726144449296 8.171462426081677 32.63444060893093 0 0 0
401 134 16 0.415 7.624971160080855 0.38760021677030737 28.440904912175057 1 0 0
2899 967 15 -0.83 5.316565634707711 7.151647887444926 34.19349856820448 1 0 -1
276 92 16 0.415 8.812398334618072 1.3761172982002021 32.66058144482557 1 0 0
3997 1333 15 -0.83 0.24927113116168187 7.244885846482227 29.28500068864008 0 0 0
1871 624 16 0.415 8.230120666832049 3.464241013000994 33.67745622887723 0 1 0
3279 1093 16 0.415 4.756047737639133 0.5535133033943275 28.49648797227874 1 1 -1
1975 659 15 -0.83 2.434407158662875 6.758425323893505 27.282930941264322 1 1 0
2154 718 16 0.415 1.6114940719179738 6.049416581290813 31.18612412326221 0 0 0
1339 447 15 -0.83 4.172273913600727 0.6955690827741502 34.232742736495986 0 0 0
2894 965 16 0.415 1.7556624027838457 3.2428591902601926 28.84244196229967 0 0 -1
2895 965 16 0.415 2.302692463486472 4.481173325460472 28.164775893109148 0 0 -1
1687 563 15 -0.83 8.27492597721607 5.5186463263487076 28.69126381348421 0 0 1
3998 1333 16 0.415 0.579614014336041 6.346504274257095 29.281004722781724 0 0 0
402 134 16 0.415 6.913636118816332 1.068388402417778 27.29093748483218 1 0 0
3940 1314 15 -0.83 3.46766111362831 2.8473978257196495 31.85000246961161 0 1 0
778 260 15 -0.83 8.207136857424219 2.6980806033962343 26.945935737582104 1 1 0
2893 965 15 -0.83 2.5308575661944364 3.8028006188406325 28.80037242820639 0 0 -1
696 232 16 0.415 5.275419872443822 5.459019987123402 28.101320773061044 1 0 0
2311 771 15 -0.83 5.774365578414272 3.5375532597231403 29.43401690438985 1 1 0
2069 690 16 0.415 2.0852664834938874 0.48682789620901024 32.23082061845828 0 0 -1
1720 574 15 -0.83 6.22692039317876 1.4814327651252535 31.80029821594418 0 1 -1
2152 718 15 -0.83 1.1821079750884618 5.5285679082808015 31.864781668096832 0 0 0
2153 718 16 0.415 1.2437945882997448 6.065794289577933 32.65460087871021 0 0 0
144 48 16 0.415 3.0543176306458477 8.377290519929717 32.801091696146266 1 0 0
2609 870 16 0.415 5.991993389494473 6.77993318315216 30.742492204743005 1 0 0
2757 919 16 0.415 6.8882309615570705 4.098310053336506 31.67848234032327 1 0 0
779 260 16 0.415 7.930632008706305 3.5302086879900045 27.32978432431395 1 1 0
3277 1093 15 -0.83 4.627528442477051 0.7637195411725594 29.42143549558395 1 0 -1
3029 1010 16 0.415 2.674683499567227 4.742452954707114 34.18166321567242 0 0 -1
2900 967 16 0.415 5.567538935520871 6.315457134276854 34.58596416727733 1 0 -1
695 232 16 0.415 4.521290259936878 6.183276353625886 27.006498228361366 1 0 0
694 232 15 -0.83 5.404494641195819 5.939597712418833 27.28363098550643 1 0 0
3278 1093 16 0.415 3.7095186309413006 0.5517364326356944 29.590411576543694 1 1 -1
1688 563 16 0.415 7.348525653756345 5.318285303400453 28.82494140064882 0 0 1
2901 967 16 0.415 4.360437134360732 7.122954221806455 34.158472822413366 1 0 -1
1259 420 16 0.415 0.7345776074062247 0.9378925517336238 27.864823739335208 1 1 0
1872 624 16 0.415 8.823919519678197 2.9866040821455515 34.98556978062118 0 1 0
4280 1427 16 0.415 0.4553724305132344 0.297581748169551 30.803401547908692 0 1 -1
655 219 15 -0.83 8.062899769239674 8.35628215806267 26.89328234427919 0 0 0
3895 1299 15 -0.83 7.0176851320956715 0.26787254448897657 35.23796322110361 0 1 0
1533 511 16 0.415 2.1128295744245333 1.5236506574131645 35.15417420190961 0 0 -1
3896 1299 16 0.415 7.120077645518795 1.2009701739692777 35.05067622263715 0 1 0
908 303 16 0.415 8.029213547978761 8.39281291355579 35.197632056629324 1 0 0
143 48 16 0.415 2.3045441555209805 8.87746129176423 34.01746504506559 1 0 0
145 49 15 -0.83 4.065128599429631 1.8828670939001224 26.638248640832103 0 0 0
3985 1329 15 -0.83 1.1059912425325664 12.49378286533271 8.186886283150823 0 0 1
1359 453 16 0.415 0.9639656750800968 12.255942626415116 4.231450518748753 0 0 1
2318 773 16 0.415 6.6778782727179715 9.011944399657567 6.316171037344696 1 0 0
939 313 16 0.415 7.9466101407667065 17.020483791168882 2.389621684328987 1 1 1
459 153 16 0.415 2.690069623263339 15.168935794015429 3.290835892464848 1 0 0
392 131 16 0.415 0.9545052432125793 14.676960040522237 6.854909702841715 -1 0 1
1666 556 15 -0.83 1.6373770448552092 15.155636719675156 1.182132423256243 1 0 1
74 25 16 0.415 0.33595889274489166 10.120698802681808 3.347675226620755 1 0 0
2877 959 16 0.415 6.266077927480782 11.584638777258563 5.554164429918221 0 -1 0
2655 885 16 0.415 7.312891929915104 10.023112717422324 8.503951409002017 0 0 0
748 250 15 -0.83 2.7475757441224937 17.505607642519585 2.94481602467531 0 0 0
1357 453 15 -0.83 0.3122325673143673 12.363334193109644 4.924229582734206 0 0 1
938 313 16 0.415 6.660041726773351 17.690644635845487 1.956584380651951 1 1 1
261 87 16 0.415 4.583336457101145 12.913935317467628 1.5365624119235173 1 0 0
457 153 15 -0.83 2.329049445074352 14.498738529426038 3.8711219202856926 1 0 0
2875 959 15 -0.83 6.92791830156346 12.245336709907388 5.758314856805486 0 -1 0
3904 1302 15 -0.83 3.125568143641432 11.060486608895216 4.338377252165576 1 0 0
4240 1414 15 -0.83 4.114046723164381 16.293436195041366 6.350210628203758 0 0 1
4242 1414 16 0.415 5.03056529993856 16.20700851613123 6.612423834143832 0 0 1
1779 593 16 0.415 6.784499841712587 10.81166710510764 1.0842117652910268 0 0 1
2876 959 16 0.415 7.16179171566213 12.07671471193509 6.671058888268261 0 -1 0
3284 1095 16 0.415 6.387050480329283 15.425988058237316 3.7189232159931565 0 -1 0
4195 1399 15 -0.83 0.7871916677876931 12.243447677811904 1.6677641989459673 1 -1 0
2319 773 16 0.415 6.61977365403671 8.912961353984617 4.8066276114377855 1 0 0
2193 731 16 0.415 7.103480940916326 14.696319421848653 1.927710992007701 0 1 0
3285 1095 16 0.415 6.610987562899488 14.106185937120719 4.425937828993483 0 -1 0
393 131 16 0.415 1.3859918308433665 15.437873088706533 5.619302224236894 -1 0 1
1667 556 16 0.415 2.4278469504046085 15.66964448211296 1.3470116717301954 1 0 1
4196 1399 16 0.415 1.3024412085192594 12.84866801467163 1.1344180936446209 1 -1 0
391 131 15 -0.83 0.6606863683308762 15.34656086020564 6.237222848274923 -1 0 1
3939 1313 16 0.415 8.364059158992388 11.217901392572111 4.5275235609030355 0 0 0
259 87 15 -0.83 3.7165489699128207 12.619833288736743 1.2565351017314885 1 0 0
1778 593 16 0.415 6.06226755945049 9.746526001902874 1.881551183253632 0 0 1
3388 1130 15 -0.83 4.258977632291429 13.181644644271822 6.699774972248146 1 0 0
3987 1329 16 0.415 1.7440694640439733 12.684424463898484 8.874449952487684 0 0 1
3390 1130 16 0.415 3.611202436928178 12.681138845716532 6.2036771231016505 1 0 0
1080 360 16 0.415 6.144624546659453 15.969807487067422 8.557396148343521 1 0 1
1296 432 16 0.415 2.3190988686813476 9.655688878218804 7.2478200819444245 0 -1 0
3389 1130 16 0.415 4.88066728029618 13.489637639830637 6.040325153815759 1 0 0
458 153 16 0.415 1.5218709741897698 14.21767410766673 3.440195546374551 1 0 0
3020 1007 16 0.415 3.1340969612915277 16.072199546994796 8.623118418018114 1 0 0
2363 788 16 0.415 2.8555497126674463 9.91391326051864 1.1128462653681892 1 0 0
3905 1302 16 0.415 4.081608112913972 11.016710550731624 4.320968700393069 1 0 0
1668 556 16 0.415 0.9484150839613047 15.808302418795833 1.0572695464427804 1 0 1
3283 1095 15 -0.83 6.094195856067034 14.910654979509355 4.470521393983213 0 -1 0
2362 788 15 -0.83 2.6632747517951176 9.380636262274596 1.8841294922710863 1 0 0
260 87 16 0.415 3.3352130668045112 12.21893735474218 2.037622298545634 1 0 0
1078 360 15 -0.83 5.679853767067061 15.179659620551837 8.832870829578715 1 0 1
1777 593 15 -0.83 6.146059029190128 10.69543701584905 1.7878563717416711 0 0 1
3937 1313 15 -0.83 8.658638611782266 11.055502685676688 3.6313754610331404 0 0 0
4241 1414 16 0.415 3.9555379654762874 15.54099677687063 5.780174018827024 0 0 1
1358 453 16 0.415 0.7883801999666774 12.787708175462347 5.637967591516299 0 0 1
2192 731 16 0.415 8.246544609606511 13.966247950205208 2.600240739147719 0 1 0
3938 1313 16 0.415 7.9078071970705395 11.28965225979607 3.0857950348706944 0 0 0
3906 1302 16 0.415 2.8422395484768317 10.348321323150675 3.7649861551129087 1 0 0
937 313 15 -0.83 7.1946778640469615 16.910780545643785 1.8075607893746843 1 1 1
2191 731 15 -0.83 7.532830442620951 13.842098957483937 1.9745963170440406 0 1 0
2317 773 15 -0.83 6.2281791426574475 9.370133114251162 5.5508584459455825 1 0 0
866 289 16 0.415 7.660546047909642 17.367050134172665 6.676938018508197 0 0 1
3019 1007 15 -0.83 2.3873264635605635 16.628896455915864 8.84369544416358 1 0 0
3986 1329 16 0.415 0.5146222534639665 11.851698757175638 8.579623529918848 0 0 1
852 284 16 0.415 5.281863486477973 12.277317911070721 8.311229810286392 0 1 1
1079 360 16 0.415 6.225866222780404 14.45856000594263 8.519633566742753 1 0 1
865 289 15 -0.83 7.106852842660576 17.5743883510407 7.429710578173425 0 0 1
4101 1367 16 0.415 3.7126250484069696 17.77472051281885 1.0205168634048736 1 -1 1
732 244 16 0.415 0.8112335879091718 10.531008562244372 10.888341912637106 1 0 1
2846 949 16 0.415 8.166165878211082 17.360547297521084 12.176859576185668 1 1 1
1993 665 15 -0.83 3.3651437778218285 13.746288099639495 9.850881312179744 0 0 0
2260 754 15 -0.83 5.688246117121072 17.068980448633173 16.41733486039531 0 0 -1
3068 1023 16 0.415 6.876773397827808 11.81463308833398 17.014215510855603 0 0 0
1559 520 16 0.415 8.802273408872496 15.170350068907117 12.828903530128347 1 0 1
2505 835 16 0.415 2.9128529669997643 11.416533812839152 11.859759793475375 0 -1 1
4144 1382 15 -0.83 8.623356448805719 12.600890291783683 15.38692569042477 0 0 0
348 116 16 0.415 1.4355560944257388 13.607588061542602 12.337576665379878 0 -1 0
2734 912 15 -0.83 8.532052181360589 15.161072909131 9.106322072806588 -1 0 1
2964 988 16 0.415 2.9922274270426623 9.269731818930312 15.751125470371873 0 0 0
3607 1203 15 -0.83 8.742638006594332 9.205788547834409 14.312735974650781 0 0 0
1220 407 16 0.415 2.669697421917552 12.42718594143829 15.779128551682646 1 0 -1
1995 665 16 0.415 4.047450140736176 13.930246339958412 10.4965199144443 0 0 0
3069 1023 16 0.415 6.8990400978807385 10.461812918668869 16.335041772504 0 0 0
2781 927 16 0.415 5.987033659307479 14.304029756295089 14.435638877858878 0 0 0
851 284 16 0.415 5.56747570505824 11.599272156528354 9.634322701235389 0 1 0
1219 407 15 -0.83 2.158948959650418 13.17050090892217 16.09983200113733 1 0 -1
2963 988 16 0.415 4.232356661641264 10.066322815778992 16.096693776504956 0 0 0
1686 562 16 0.415 4.116330538880888 15.77047274943777 14.502642371316806 0 -1 0
2962 988 15 -0.83 3.350852621022669 10.157061575566672 15.734825110180278 0 0 0
2504 835 16 0.415 2.9046188402835793 11.292387934546325 13.368539144012924 0 0 1
3116 1039 16 0.415 0.05352529021972505 10.194053522710302 16.631298481987315 0 0 1
2847 949 16 0.415 7.675779144379033 17.519284055805013 10.753406502876928 1 1 1
1623 541 16 0.415 1.7553325689141974 17.371808579246785 13.083187068254745 0 -1 0
1685 562 16 0.415 2.825163155578175 14.987238823508513 14.396216101457068 0 -1 0
1053 351 16 0.415 7.137924766831532 14.16892316569736 16.99844846751152 1 0 0
67 23 15 -0.83 8.32300172448531 15.9859803325469 14.84260270706751 0 0 -1
3067 1023 15 -0.83 6.312927811147802 11.080329366495695 16.77109407407303 0 0 0
730 244 15 -0.83 0.6454662395347793 10.312514430791047 9.971274120363184 1 0 1
68 23 16 0.415 7.715161498868703 15.633230729781666 15.49247178371752 0 0 -1
3234 1078 16 0.415 6.705924449513999 14.84278354284322 11.622783728501533 0 0 1
347 116 16 0.415 2.1853586521177455 14.912513983306175 12.501465767575109 0 -1 0