LAMMPS data file via write_data, version 29 Oct 2020, timestep = 100000

4500 atoms
16 atom types
3000 bonds
19 bond types
1500 angles
24 angle types
0 dihedrals
42 dihedral types

-1.0089571269878796 36.56820712698873 xlo xhi
-1.0089571269878796 36.56820712698873 ylo yhi
-1.0072719514743675 36.50728195147489 zlo zhi

Masses

1 12.01
2 1.008
3 12.01
4 16
5 14.01
6 1.008
7 16
8 14.01
9 1.008
10 12.01
11 14.01
12 12.01
13 1.008
14 16
15 16
16 1.008

Pair Coeffs # lj/cut/coul/long/omp

1 0.086 3.39967
2 0.015 2.59964
3 0.086 3.39967
4 0.21 2.95992
5 0.17 3.25
6 0.0157 1.06908
7 0.2104 3.06647
8 0.17 3.25
9 0 0
10 0.086 3.39967
11 0.17 3.25
12 0.086 3.39967
13 0.0157 1.06908
14 0.2104 3.06647
15 0.1521 3.157
16 0.015 2.058

Atoms # full

3042 1014 16 0.415 -0.5691223650258241 3.1260394194431167 16.418850949050025 1 0 0
1243 415 15 -0.83 5.951105608952155 7.0967153919949295 10.181123600555058 0 -1 1
3475 1159 15 -0.83 7.747062243535466 6.520780539444301 3.8279704834099006 1 1 0
3238 1080 15 -0.83 1.3295346370359926 5.146206176712994 4.709440722354362 1 1 0
3674 1225 16 0.415 5.069334129265885 2.9861939591283146 1.1891619058273042 1 1 0
3161 1054 16 0.415 5.232490057300043 5.697693837977705 -0.15193416530682027 1 0 1
708 236 16 0.415 3.5157905915938454 -0.163939759019973 6.049367604749019 2 1 -1
3477 1159 16 0.415 8.199603411105972 6.468639680516934 2.986120213446417 1 1 0
3160 1054 15 -0.83 5.916978020394359 6.334543563627774 -0.3571722316480386 1 0 1
3476 1159 16 0.415 7.686389488552526 7.458520298050605 4.0101434024022575 1 1 0
2493 831 16 0.415 -0.7348895843038162 5.448204033309796 13.204650739513863 0 -1 1
4353 1451 16 0.415 -0.01545472024101078 2.20067220252944 5.640212336011437 1 0 1
3017 1006 16 0.415 1.302356383774628 4.6381577163747005 11.598993162796416 0 1 -1
707 236 16 0.415 3.631965882064376 -0.6734756178701924 7.470195568994011 2 1 -1
4496 1499 16 0.415 -0.08053521454560937 7.689904743175712 17.592839136237814 0 0 -1
497 166 16 0.415 6.586906117907311 3.628463392511197 9.025867391363473 1 1 1
1481 494 16 0.415 7.539633471708596 5.796498432204104 13.115453070669464 1 1 0
3600 1200 16 0.415 2.348466098402324 7.035582074332438 13.293446651291138 0 1 1
3470 1157 16 0.415 2.029933745068379 2.342959180441819 12.841325233632807 0 0 1
1140 380 16 0.415 2.749116091870002 -0.9460679408101557 15.583431498201037 0 1 -2
4148 1383 16 0.415 1.6469149218729726 4.7423193961526495 1.1403356691688085 0 1 0
496 166 15 -0.83 6.563247876803494 3.81358936942674 9.964692561035823 1 1 1
2993 998 16 0.415 4.092719564982994 6.778405664471185 3.823726557422873 0 1 1
706 236 15 -0.83 3.4473579697622627 0.11640373630839239 6.962027736833143 2 1 -1
4238 1413 16 0.415 -0.938730723978324 4.452293308490562 10.133987298219436 0 1 1
4459 1487 15 -0.83 1.4130147762641363 0.5253419273136609 2.020047261142098 0 2 2
3869 1290 16 0.415 -0.9640509958564176 7.443250560163622 15.060146611024653 1 2 0
3522 1174 16 0.415 6.85737155832643 6.2773438300206275 5.903618311514606 0 1 0
3963 1321 16 0.415 7.915761273603565 0.761839162496907 1.109920747073365 1 1 2
4147 1383 15 -0.83 1.60288124770867 5.654525691059958 1.4269796288428567 0 1 0
3239 1080 16 0.415 1.867000505908161 5.128738269947884 3.9175762571585215 1 1 0
2022 674 16 0.415 -0.20058268095610518 4.91667756348531 7.369233339215512 1 -1 0
3041 1014 16 0.415 0.2880207068738311 2.9813760833991547 17.65830806655709 1 0 0
635 212 16 0.415 2.027512952917117 -0.07015463932306697 12.917861955107142 0 0 2
1281 427 16 0.415 5.983944029967989 2.0512160696958817 12.614057535894078 1 1 0
4461 1487 16 0.415 1.5413978819343503 -0.13772161107340172 2.6983455235510996 0 2 2
3962 1321 16 0.415 8.09752176019311 1.8833050729068739 0.1093444147455031 1 1 2
1753 585 15 -0.83 7.348905442133133 -0.7150744871040923 13.917586561073097 -1 0 0
3784 1262 15 -0.83 8.221442956905125 4.350395316237796 -0.4185313383471073 0 1 2
3240 1080 16 0.415 1.9597918414699895 5.099490858970273 5.428340952699184 1 0 0
1678 560 15 -0.83 4.339186621554184 0.7214418133846029 1.366814581043906 -1 1 1
1345 449 15 -0.83 3.512951654725889 5.889809775071634 7.030984931240748 2 1 0
4460 1487 16 0.415 2.035211585763719 0.28864999493954474 1.3322449141127028 0 2 2
3471 1157 16 0.415 2.486490841700491 2.211873866907757 11.403880313603718 0 0 1
107 36 16 0.415 6.506304227717917 2.614799395048932 6.428892235285117 0 1 1
4149 1383 16 0.415 2.0994115329083862 6.137828105693463 0.7666005873162672 0 1 0
3865 1289 15 -0.83 5.461160753645284 -0.03425995189090062 16.293630254614843 0 0 0
3520 1174 15 -0.83 6.717871491178279 6.322592413325498 6.849512759041453 0 1 0
2994 998 16 0.415 5.4629089115380935 6.151772775923389 3.6761189408362607 0 1 1
1063 355 15 -0.83 8.172453260580356 -0.05837811523407928 7.983852768546165 0 0 0
3521 1174 16 0.415 7.0582268912887365 7.181012968983797 7.101497620156715 0 1 0
2992 998 15 -0.83 4.628412021384483 6.048081975359311 4.133379453578199 0 1 1
4351 1451 15 -0.83 0.7833159917170727 1.856089985182955 6.039527316711359 1 0 1
1680 560 16 0.415 5.238298547640192 0.6753461690899969 1.0417038798260716 -1 1 1
1706 569 16 0.415 1.6658275681459647 2.0251917464285576 -0.2996121561815291 0 2 1
1679 560 16 0.415 4.05009760880968 -0.19033113933242002 1.4031689172011323 -1 1 1
1454 485 16 0.415 0.8916886564115121 2.9878892319499655 7.951223881680548 1 1 0
3956 1319 16 0.415 1.9023765199714322 4.427813841048823 15.492428542042752 0 0 0
3961 1321 15 -0.83 7.42503829055096 1.379547996580073 0.5678407116181325 1 1 2
1455 485 16 0.415 1.632715920687754 3.326790310550584 9.227115833342628 1 1 0
390 130 16 0.415 7.234539486595457 0.5298271204200578 3.4247857629545684 -1 1 -1
106 36 15 -0.83 5.896114419873734 2.1283312756468904 6.983185662007425 0 1 1
2021 674 16 0.415 -0.8018406928370434 5.45196494756117 6.087113278296178 1 -1 0
3599 1200 16 0.415 3.409909409982199 7.230585348874721 12.231755759953568 0 1 1
2020 674 15 -0.83 -0.7630071288729344 5.612912488496695 7.029881471031636 1 -1 0
2491 831 15 -0.83 -0.668311474807023 5.350264348062011 14.154492413709164 0 -1 1
3040 1014 15 -0.83 0.34143783730695965 3.1283702625900336 16.71397583176188 1 0 0
1245 415 16 0.415 5.931869138363255 6.2751680432074926 10.671953475165099 0 -1 1
108 36 16 0.415 5.308233154230294 1.6913990782322994 6.366979606982551 0 1 1
1346 449 16 0.415 3.5374971009087037 6.115554632967016 6.101113477988848 2 1 0
2109 703 16 0.415 5.7123948547464565 2.26612384683944 14.814746948802735 0 1 1
1503 501 16 0.415 8.237382997099846 3.800159863366068 13.202589782694739 -1 0 1
1347 449 16 0.415 4.429131970670689 5.744202363431726 7.266858079878251 2 1 0
4203 1401 16 0.415 0.30037216059903177 7.083725502289881 3.508926273409257 -1 0 0
1754 585 16 0.415 7.984642761899807 -0.3498116665060495 14.532928050647682 -1 0 0
1419 473 16 0.415 1.0323943493364764 0.35369668051459496 7.7924004425394156 0 1 1
2947 983 15 -0.83 5.363313181237063 1.9738115379972232 3.956432747342673 1 1 0
1931 644 16 0.415 6.044986233353723 5.467030237998551 15.232292806239046 1 1 -1
1551 517 16 0.415 0.9639069172848287 1.72636346146837 14.868042469712895 1 1 0
3018 1006 16 0.415 1.3380989720241103 6.08180832370736 11.144602357282082 0 1 -1
3660 1220 16 0.415 6.4395653932083565 1.0683985814146921 9.587667022079774 0 1 1
3469 1157 15 -0.83 1.7036523444571812 2.331550189069345 11.941528424846645 0 0 1
1755 585 16 0.415 7.393678658138778 -0.13781376346311958 13.155359932713676 -1 0 0
2949 983 16 0.415 5.06461455223149 2.8721520557336953 4.097809870235909 1 1 0
1550 517 16 0.415 1.0032907167278968 0.5035978872591373 15.759764918141135 1 1 0
298 100 15 -0.83 3.085815420564514 7.39577048845668 15.826330071054354 -1 0 1
2719 907 15 -0.83 3.0805698386310354 7.522899539451618 -0.8758797000270814 0 2 1
3658 1220 15 -0.83 6.517617992163397 0.5997396244489704 10.4186246511258 0 1 1
3957 1319 16 0.415 3.312814291312977 4.284794238597376 14.961310515638951 0 0 0
3659 1220 16 0.415 6.385576079660815 -0.3200100623117907 10.188734562289277 0 1 1
1932 644 16 0.415 5.595488591303314 6.689587463269284 16.003772757061462 1 1 -1
1707 569 16 0.415 2.9048216899996033 2.8490653526803116 -0.5788995671833274 0 2 1
3867 1289 16 0.415 6.1117634904010325 -0.12954756078061777 16.98923099731744 0 0 0
3866 1289 16 0.415 5.4218024590588945 -0.8975071516323868 15.881951686183053 0 0 0
1244 415 16 0.415 6.437016254886563 6.888243409241634 9.383217414390021 0 -1 1
2982 994 16 0.415 5.383997576830881 4.293579963657919 13.438432779327988 1 0 1
2981 994 16 0.415 4.444414565386029 4.8647505742562975 12.397844713904094 0 0 1
892 298 15 -0.83 3.319088543032483 5.761479671670796 10.223487938650644 0 0 1
299 100 16 0.415 3.171995575668123 6.533359537146454 16.23258661014008 -1 0 1
2951 984 16 0.415 -0.9007522473585247 8.25056268032684 6.399877910097516 1 1 1
1930 644 15 -0.83 6.075323463666735 5.86711326956394 16.101336668146836 1 1 -1
2107 703 15 -0.83 5.377790739173953 3.0329300718643806 15.279797883427934 0 1 1
3059 1020 16 0.415 3.046470892106372 1.4772506575987512 9.114451561634121 0 0 -1
2627 876 16 0.415 -0.3319423033073692 1.8361903377585271 11.139461889063739 0 1 1
3060 1020 16 0.415 4.4191986968142585 1.8904381802275487 8.627861296732005 0 0 0
2980 994 15 -0.83 5.241634086527572 5.064116965405162 12.888678794588177 1 0 1
300 100 16 0.415 2.173277845878621 7.6421036468365475 15.977390320510464 -1 0 1
3955 1319 15 -0.83 2.42721847569676 4.536435160180952 14.699354549219478 0 0 0
1480 494 15 -0.83 8.15342374281389 6.115204220002442 13.777202365607618 1 1 0
4202 1401 16 0.415 0.9381575937559898 7.536534225395273 4.805101283107957 -1 0 0
2948 983 16 0.415 4.930339188024959 1.701465657921446 3.147368275041155 1 1 0
4352 1451 16 0.415 1.4891511643184534 2.368054587644816 5.644669161927393 1 0 1
894 298 16 0.415 3.919625227985992 6.464453918341319 9.975683645040256 0 0 1
2628 876 16 0.415 -0.6904640789966047 1.0068124634736597 9.924772590388752 0 1 1
1280 427 16 0.415 4.8677021887183125 1.4267499893460809 11.804167487354363 1 1 0
2108 703 16 0.415 4.977302472027579 2.676759543757951 16.07287778243238 0 1 1
498 166 16 0.415 5.982801334981564 3.1441037398756344 10.326762775359507 1 1 1
3058 1020 15 -0.83 3.7928722565949076 2.0334815174009644 9.337423018673988 0 0 -1
1453 485 15 -0.83 0.7621465079918088 3.345416349427914 8.829641328849553 1 1 0
1501 501 15 -0.83 8.301807865954364 2.9105944765194205 12.855103284451856 -1 0 1
1417 473 15 -0.83 1.0391925749340638 -0.230810155361396 8.550377732731146 0 1 1
1549 517 15 -0.83 1.0829172146171442 0.7768537614843274 14.845863974337236 1 1 0
1482 494 16 0.415 7.832630211446357 6.988797240603117 14.001146069892426 1 1 0
3598 1200 15 -0.83 2.6575258695839157 7.66088984769065 12.637934411411305 0 1 1
3016 1006 15 -0.83 0.7406268690705922 5.347687123358758 11.28714064717756 0 1 -1
893 298 16 0.415 2.9836552874797513 5.427924652927441 9.391352331345582 0 0 1
1279 427 15 -0.83 5.032609452683461 1.9482994499654243 12.589671001753974 1 1 0
634 212 15 -0.83 2.5216480638671723 -0.7742315912823377 12.49794507449291 0 0 2
388 130 15 -0.83 7.6761289917325275 -0.31309690241752935 3.3213359396449875 -1 1 -1
1705 569 15 -0.83 1.9502822862380287 2.8706223539628883 -0.6468247915561114 0 2 1
389 130 16 0.415 8.228800484475432 -0.39151471067156973 4.098914817392256 -1 1 -1
4201 1401 15 -0.83 0.511837441077735 7.868266183363081 4.014893048288931 -1 0 0
2492 831 16 0.415 0.15878095668991382 4.888109451496032 14.290709038788801 0 -1 1
3852 1284 16 0.415 -0.2869359726675165 0.5131477281679755 0.3851522933866208 1 0 1
3673 1225 15 -0.83 5.176633409346038 3.4219647360634524 0.3436947526464985 1 1 0
1421 474 16 0.415 5.820793205720496 8.07320377768105 1.4651730206123708 0 1 0
678 226 16 0.415 2.8250659581607276 8.008344370924739 8.11973095253338 1 0 0
3850 1284 15 -0.83 -0.13695721207893938 0.13882457382785782 -0.48295634083918976 1 0 1
3785 1262 16 0.415 7.615072642559662 5.090113119826152 -0.4553639924320798 0 1 2
3868 1290 15 -0.83 -0.4329760033077341 8.185524720511609 15.348612320502 1 2 0
3675 1225 16 0.415 6.110609261010065 3.342741006093302 0.14969284248998074 1 1 0
704 235 16 0.415 0.6757931124619452 -0.5282877191388323 17.66890083930527 0 1 1
3761 1254 16 0.415 1.178949551334835 2.6983266247506776 20.08701807240031 1 1 -1
3079 1027 15 -0.83 1.7231014685867538 0.8112427079309551 31.717777597672566 0 2 0
1507 503 15 -0.83 0.029375212467281916 2.115995967416847 24.015208465542376 1 2 0
335 112 16 0.415 6.401268571111381 4.835532861814793 24.370199962665428 0 2 0
1337 446 16 0.415 1.112713978232223 3.4273853664609177 34.84637718652221 0 0 0
466 156 15 -0.83 1.4174696410001808 4.338971364948422 26.248603181919556 0 1 0
4284 1428 16 0.415 0.25158194496534253 -0.9255405806339182 32.589824877523164 0 2 0
2841 947 16 0.415 5.059870269622224 4.10792722364186 21.134022322354962 1 1 0
930 310 16 0.415 -0.05325406903959466 6.306591367177741 22.234543987296043 -1 0 0
3760 1254 15 -0.83 0.8625987196785401 3.581406540848234 20.277585756563575 1 1 -1
2736 912 16 0.415 -0.8977669144110715 8.295324317203894 35.2657607023631 -1 1 0
2490 830 16 0.415 3.9022730318185586 2.1771643310478237 25.59504404420932 1 0 0
468 156 16 0.415 1.8216262577370568 3.5433718456713654 26.59487314593298 0 1 0
1509 503 16 0.415 0.3237658833861328 2.848853345468957 24.556021127137374 1 2 0
2839 947 15 -0.83 5.010583828235306 4.97654193575938 21.533150542694866 1 1 0
3162 1054 16 0.415 5.5358487560979635 6.8842273333906485 36.47268300539327 1 0 0
4495 1499 15 -0.83 0.6555561411990309 7.836763618167909 18.186830734665808 0 0 -1
3015 1005 16 0.415 3.744649974988895 5.860379348582498 23.6725065693259 0 1 1
2840 947 16 0.415 5.861524795607027 5.095428003337327 21.955038658988187 1 1 0
2305 769 15 -0.83 -0.6512876647619688 0.817111051062871 29.88850377933241 0 1 0
3762 1254 16 0.415 1.6550114852751867 4.116899283359766 20.317001356593615 1 1 -1
3601 1201 15 -0.83 7.756155616081045 7.658054289956178 18.73476954899005 0 0 -1
2944 982 15 -0.83 2.705385527535272 3.4593408022735006 23.225745933084724 1 0 0
336 112 16 0.415 5.795081574022762 3.4667981617868846 24.14441585183302 0 2 0
334 112 15 -0.83 5.561724259250217 4.3861842749042275 24.272858713329732 0 2 0
2488 830 15 -0.83 3.163642808377924 1.5891713579039057 25.43720341187419 1 0 0
2489 830 16 0.415 3.5599994367278516 0.7993300455578861 25.06940437069946 1 0 0
705 235 16 0.415 1.2818339735944924 0.39047218456469857 18.708357601571343 0 1 1
3922 1308 15 -0.83 2.2309811314496137 6.208029499866235 20.43275545474638 0 0 0
1037 346 16 0.415 5.390653903642574 7.966553568558323 21.63734403424945 1 0 0
4302 1434 16 0.415 4.594686322403646 0.9801300117134898 35.42520118176064 0 1 0
1172 391 16 0.415 3.708191589482562 4.313869589218329 18.55438574137486 1 0 0
1610 537 16 0.415 5.192401677003483 4.25508371388256 34.34655481871674 1 0 0
2307 769 16 0.415 -0.933218187193809 0.506623681019677 29.028075509532755 0 1 0
2945 982 16 0.415 2.8895234571389907 3.3368174251729155 22.29445368394768 1 0 0
929 310 16 0.415 1.3154167868328805 6.2637489726067015 22.88012926813951 -1 0 0
928 310 15 -0.83 0.38128410807466523 6.29045597389719 23.087269176395782 -1 0 0
4170 1390 16 0.415 0.5720433467110488 4.668528424403087 30.62779190416315 1 0 0
3013 1005 15 -0.83 3.403552645708611 6.667738856698182 24.05727565744642 0 1 1
3014 1005 16 0.415 4.183818906194377 7.169853201953067 24.29241339467358 0 1 1
3809 1270 16 0.415 5.283002662089332 1.2854852858124335 22.514465145465817 1 1 1
4209 1403 16 0.415 1.5232821786677329 8.036891971900932 24.311401654014137 -1 0 0
2946 982 16 0.415 3.562854886143057 3.615688697626908 23.62137915508385 1 0 0
3512 1171 16 0.415 4.011454114297209 8.056643518972551 31.00343656690831 1 0 0
1926 642 16 0.415 4.681225329264455 0.8237987234384898 30.085396309173984 -1 1 -1
3923 1308 16 0.415 3.067041612149084 6.575836983433235 20.71901502864504 0 0 0
3810 1270 16 0.415 6.6901392675795135 1.2861487046837463 21.95603723470213 1 1 1
1843 615 15 -0.83 7.395636007785146 0.8550053381486571 18.85881536543834 1 1 1
877 293 15 -0.83 5.479949670979693 2.443229745792831 27.298645448168198 2 0 0
1844 615 16 0.415 7.9656081545690505 1.5495689810681932 19.18887166231242 1 1 1
850 284 15 -0.83 2.348944626448095 0.5716504567678388 20.999020228672908 1 1 -1
3194 1065 16 0.415 -0.5188405708239977 6.2593041674925605 19.80368783770721 1 0 0
1127 376 16 0.415 0.030745409199891702 8.17726418812334 31.70896107114506 0 0 -1
4104 1368 16 0.415 2.7631007933389595 3.2781014743261223 29.735529782458194 0 -1 1
323 108 16 0.415 -0.5042696740947659 6.07508679400884 25.40763998378203 1 1 0
4375 1459 15 -0.83 3.9897332673412556 -0.6494970026552017 23.37216771121587 0 0 -1
2306 769 16 0.415 -0.9845118659968963 1.7128703110459829 29.9414285285807 0 1 0
1845 615 16 0.415 7.975843440892665 0.10227024282312357 18.74491531584828 1 1 1
1186 396 15 -0.83 5.508430672937047 6.635108190908867 31.479422141400438 0 0 -1
3231 1077 16 0.415 0.8302540584573985 5.9195646752702835 34.49661381827197 1 1 -1
467 156 16 0.415 1.9818383409364342 4.597240733295772 25.51989955947057 0 1 0
3828 1276 16 0.415 1.8541329618247786 6.1049927480624735 28.110813500265323 0 0 -1
3924 1308 16 0.415 2.000338994737397 6.714084358090035 19.653694023855223 0 0 0
919 307 15 -0.83 7.340608943804369 -0.8786911270055444 33.999054619084916 -1 0 0
878 293 16 0.415 5.859727494260419 1.638423866994704 26.946111302326127 2 0 0
1427 476 16 0.415 5.022796163873032 1.892304408238795 18.6517116118673 0 1 -1
1609 537 15 -0.83 5.973758829203607 4.782301771791967 34.1799831176164 1 0 0
922 308 15 -0.83 -0.013878248705413349 1.710294730112057 27.095914208533767 1 0 -1
2721 907 16 0.415 2.3734524814456246 7.372048940232873 36.01141575858767 0 2 0
1428 476 16 0.415 3.800660996573706 1.2482572471396578 19.270956730824583 0 1 -1
924 308 16 0.415 -0.4004689650995418 2.5610327925203005 26.888510259837485 1 0 -1
3081 1027 16 0.415 1.5190163375282266 1.1872528573945325 30.861512655870325 0 2 0
851 284 16 0.415 1.8989285993616898 -0.27024824728355246 20.928904735628105 1 1 -1
1128 376 16 0.415 1.4471858983993198 8.265318878640855 32.2360458041799 0 0 -1
3808 1270 15 -0.83 6.124226548592448 1.7370565706912326 22.5826542623102 1 1 1
1301 434 16 0.415 7.619263529626234 4.794685768923775 18.234951529253934 1 1 -1
852 284 16 0.415 2.659541532904057 0.6031219759749606 21.903875531643557 1 1 0
4301 1434 16 0.415 3.45424716823687 1.406512918861388 34.52549469940844 0 1 0
1187 396 16 0.415 5.706864807750176 6.102994292633006 32.24994322095989 0 0 -1
1611 537 16 0.415 6.696638243107866 4.253241103852235 34.517272578331024 1 0 0
3113 1038 16 0.415 3.080686498352838 -0.5777307682834406 32.883665675039786 -1 0 -1
1336 446 15 -0.83 0.5718496270608944 3.0807252871514192 34.13678818356217 0 0 0
4168 1390 15 -0.83 1.1687108765642722 4.193882534607175 31.20651736533036 1 0 0
3603 1201 16 0.415 6.818498598888237 7.8480982720592865 18.76487973915823 0 0 -1
1161 387 16 0.415 3.516174055938452 6.905734673387165 33.82013545235848 2 1 -1
1575 525 16 0.415 7.241845915949239 7.783493839806641 24.989156259963575 -1 0 0
1952 651 16 0.415 7.418352013286727 0.510756887436307 26.76474174877729 0 0 0
1300 434 15 -0.83 8.035613902166439 4.005768431331529 18.58206220872448 1 1 -1
4300 1434 15 -0.83 3.72258607596679 0.7162328543967527 35.13190354126881 0 1 0
4169 1390 16 0.415 0.6929964382651357 4.12071595806898 32.03390267354361 1 0 0
3032 1011 16 0.415 2.47124591291121 -0.36879260416921933 26.42190966859434 1 1 0
4102 1368 15 -0.83 2.5121759518035383 2.8053440798847156 28.941954818277605 0 -1 1
1924 642 15 -0.83 5.22250413154441 1.4283760919988082 30.593064999722674 -1 1 -1
2869 957 15 -0.83 8.293746013041243 0.7639983712126844 31.25337220860343 0 0 0
3080 1027 16 0.415 1.9395732083097161 1.5656360473392492 32.26573262659903 1 2 0
1951 651 15 -0.83 6.948988960791572 0.03919990384328293 26.07658744224761 0 0 0
4103 1368 16 0.415 1.557926376913396 2.874569093241675 28.912977713856822 0 -1 1
162 54 16 0.415 7.966069943107367 3.65274075057765 21.183995736475197 1 0 0
923 308 16 0.415 0.07070069107549629 1.2722510373736287 26.249044593647344 1 0 -1
1159 387 15 -0.83 3.0421890529836806 6.198178541592233 33.38318403279958 2 1 -1
3826 1276 15 -0.83 1.2164254326670618 6.3019422765149145 28.796935941123248 0 0 -1
1953 651 16 0.415 7.063019777365926 -0.8849609739524399 26.298280253420923 0 0 0
186 62 16 0.415 6.507509038336932 3.4350135814862774 30.603211410647493 0 1 0
1173 391 16 0.415 4.666820645240611 5.260504735174951 17.863887461911464 1 0 0
3602 1201 16 0.415 7.996747294676355 7.781839468243871 17.816610022696075 0 1 -1
4282 1428 15 -0.83 -0.6799005837624789 -0.8963852372103275 32.37138880675217 0 2 0
3229 1077 15 -0.83 0.4800234992993952 6.064554173706747 35.37555672238159 1 1 -1
1338 446 16 0.415 -0.32220894033082115 3.117182142154343 34.47672085859767 0 0 0
185 62 16 0.415 7.141801970512975 2.8076873367200212 29.38009657206997 0 1 0
1426 476 15 -0.83 4.1498809952882105 2.093665030620712 18.988901501657942 0 1 -1
3910 1304 15 -0.83 5.875810195693061 8.094024463462972 28.606358469986066 1 0 0
4245 1415 16 0.415 3.2195581804309876 3.868395557350658 32.34614569619866 0 0 -1
3230 1077 16 0.415 0.8792898884768466 5.377601459839775 35.90932290437329 1 1 -1
879 293 16 0.415 4.9463449539347435 2.1528384924619055 28.038350076861303 2 0 0
3114 1038 16 0.415 4.515062480605172 -1.003200532265785 33.114786116231144 -1 0 -1
484 162 15 -0.83 3.0467759595818165 8.233667804577719 27.24105274245604 2 1 0
1160 387 16 0.415 3.233020482390898 6.320026153900634 32.453151473989344 2 1 -1
4442 1481 16 0.415 4.753428060225575 5.711967906935151 26.2549784193023 1 1 0
4441 1481 15 -0.83 4.725218371230942 5.607544514443222 27.206043107983575 1 1 0
184 62 15 -0.83 7.213552560379749 3.558952945464041 29.968888455635394 0 1 0
63 21 16 0.415 4.675701398022122 8.211848600739874 18.58949120737975 0 1 0
3827 1276 16 0.415 1.7093592422555093 6.804299659094713 29.445686532569464 0 0 -1
1508 503 16 0.415 0.7599598751200997 1.948362796698917 23.41991930518179 1 2 0
1188 396 16 0.415 6.322525146284849 6.641423011921705 30.97599951007944 0 0 -1
4443 1481 16 0.415 5.15022933544895 4.765252358769954 27.3677021639365 1 1 0
1925 642 16 0.415 5.0054451998087695 1.2365850845319062 31.505383833320078 -1 1 -1
4243 1415 15 -0.83 3.531422154511205 3.2401233078673948 32.99748192196526 0 0 -1
4244 1415 16 0.415 3.184097459827702 3.5637706686843766 33.828650985724494 0 0 -1
160 54 15 -0.83 8.282361311116853 3.958376060829145 22.034155041357764 1 0 0
485 162 16 0.415 3.5200553056390467 7.437049617214401 27.000989943692243 2 1 -1
3057 1019 16 0.415 8.064348467563054 3.0736721920761805 27.540657712828093 0 1 -1
1302 434 16 0.415 8.303657107139113 3.5144077666443225 17.805569089294377 1 1 -1
1573 525 15 -0.83 6.402870139589866 7.439461891375877 25.295727128184236 -1 0 0
3911 1304 16 0.415 6.27348025443563 7.271404323428733 28.8916278898271 1 0 -1
324 108 16 0.415 -0.7244082757045591 5.855534914633037 26.889264632549878 1 1 0
1171 391 15 -0.83 3.7537057539841703 4.973377221122801 17.86214144678314 1 0 0
2871 957 16 0.415 7.795711162341794 1.002159126093281 32.03533433684401 0 0 0
3912 1304 16 0.415 5.826686667389114 8.019044637329625 27.653369006522915 1 0 0
1574 525 16 0.415 5.78540949943927 8.158596332846814 25.162265169835404 -1 0 0
4283 1428 16 0.415 -0.7970022349930912 -0.0543545771483806 31.931507484869556 0 2 0
703 235 15 -0.83 0.6204574523292985 0.3616496340974323 18.017000677969662 0 1 1
3378 1126 16 0.415 8.363999331717064 1.1243484410825562 35.25784696884192 0 0 0
161 54 16 0.415 8.12597683530242 3.223192481426418 22.6268379620198 1 0 0
3851 1284 16 0.415 -0.45672569070483743 0.80586183274721 36.424116255763515 1 0 0
2526 842 16 0.415 2.7832596674328167 10.436309151220744 0.3476608893315336 1 0 1
765 255 16 0.415 -0.8424339952984692 11.162846698263712 3.011737065894713 1 1 0
3702 1234 16 0.415 0.4403730859557722 10.83241383180501 17.59826441962548 0 1 0
2960 987 16 0.415 2.5061920323206683 9.04910590041851 4.813571327837328 1 0 0
2959 987 15 -0.83 2.904210660541268 8.690230701020193 5.606675216234893 1 0 0
2099 700 16 0.415 3.7204163875764475 13.38050073980408 0.3174697322219493 1 1 1
3952 1318 15 -0.83 4.176071052571205 17.715030241391073 15.627780798857469 1 1 -1
1293 431 16 0.415 1.6609637943734104 11.302567740656503 1.9928638476743294 0 -1 1
423 141 16 0.415 7.8474407286108905 11.836642752975141 6.322029509919121 0 -1 0
764 255 16 0.415 -0.1293916961820828 10.073289944964706 3.7839497260643347 1 1 0
2524 842 15 -0.83 2.987065910149822 10.648613956586509 -0.5631704435339222 1 0 1
37 13 15 -0.83 6.516045088264576 9.404959890061706 8.434051477799903 1 0 0
39 13 16 0.415 6.135051636741102 9.818548310126776 7.659446628574837 1 0 0
448 150 15 -0.83 7.053902911457911 15.14921484896394 0.7788679818605171 0 0 1
1422 474 16 0.415 4.911142752923822 9.248502876410365 1.7534157487112183 0 1 0
3870 1290 16 0.415 -0.7342470969455113 8.918944583277748 14.81237066712385 1 2 0
1406 469 16 0.415 3.6206500311893555 13.614642633785317 15.516179840532764 0 1 1
1773 591 16 0.415 5.327944860156841 8.763919942412564 5.174322271758817 0 0 1
2961 987 16 0.415 2.640445707868938 9.293343972315773 6.3015899267551 1 0 0
1291 431 15 -0.83 2.365456077543581 10.893029496531609 2.4950521331492053 0 -1 1
38 13 16 0.415 5.771155664774427 9.006723288889967 8.884352946207448 1 0 0
2761 921 15 -0.83 -0.7470856148195222 12.46593453164423 8.297706551277344 0 1 0
1420 474 15 -0.83 5.396480027858331 8.543873740854798 2.1825656220707246 0 1 0
2319 773 16 0.415 5.470054255544392 16.99941495910868 12.080702771781871 1 1 0
1057 353 15 -0.83 5.4476029319149735 12.05197531898941 5.818762285560552 0 1 1
2525 842 16 0.415 2.247489674267281 11.18058794556643 -0.8568619376259117 1 0 1
236 79 16 0.415 6.22708244844903 12.760680992553363 -0.315468456123544 0 0 0
763 255 15 -0.83 -0.9307657753032377 10.59673429842424 3.7785083938565296 1 1 0
3372 1124 16 0.415 -0.2739647138483573 13.886977366312667 1.424319330213092 1 1 0
1407 469 16 0.415 3.4730336543673155 12.116477440248067 15.356223326567514 0 1 1
1058 353 16 0.415 4.596390696618665 12.465362231538812 5.962890837462327 0 1 1
1564 522 15 -0.83 -0.1023447200169308 11.551872937648033 13.876432741346493 1 1 1
1030 344 15 -0.83 0.7280873298491896 13.663404397772837 16.31054878210812 1 1 0
3473 1158 16 0.415 -0.4667557681263169 9.188639363560348 1.2536931744802033 0 0 1
2532 844 16 0.415 7.4889283872049095 16.198956196980085 8.057192873919007 0 0 0
449 150 16 0.415 6.611880657919672 15.53355985695994 0.021821567338355576 0 0 1
1821 607 16 0.415 3.0361981491008927 11.539123286160676 8.036118186937486 0 1 -1
1566 522 16 0.415 0.5619898571895199 12.218932631794917 14.049392103495363 1 1 1
3071 1024 16 0.415 4.989068633554362 10.04685249999776 10.620096412771172 0 0 1
2100 700 16 0.415 3.6279931922633115 14.788815073673812 0.8651780764072927 1 1 1
245 82 16 0.415 2.603946429341989 14.582619982252453 3.5933710369204896 2 0 2
1059 353 16 0.415 5.246053486004376 11.124482155928321 5.694833729648979 0 1 1
1819 607 15 -0.83 2.2021716092795662 11.139873283068656 7.788684812816506 0 1 -1
1292 431 16 0.415 2.3863178375887975 11.378942518963253 3.319477612331432 0 -1 1
1820 607 16 0.415 1.5424984651465723 11.785499058420992 8.042106851307098 0 1 -1
244 82 15 -0.83 2.350821397027411 13.699646195669564 3.8626460771043067 2 0 2
4003 1335 15 -0.83 5.438837313044148 17.293303334641166 2.56644868754314 1 0 0
998 333 16 0.415 -0.6141939142964141 16.4891539883278 14.826077609592756 1 0 0
246 82 16 0.415 1.8952853247075034 13.338209397058513 3.102334041757471 2 0 2
3472 1158 15 -0.83 -0.08867740585907266 9.87724428404193 0.7067891312428194 0 0 1
2530 844 15 -0.83 6.553552671886828 16.092371390101786 8.230213003243176 0 0 0
2317 773 15 -0.83 5.176338991190761 17.740814120017454 12.610120046910646 1 1 0
1521 507 16 0.415 6.576880458630694 13.215736368186112 4.390085261521381 0 1 -1
3701 1234 16 0.415 1.2649830554075865 11.212446869174896 16.386873060204763 0 1 0
450 150 16 0.415 6.827800102322635 15.7270719245713 1.5076908327819352 0 0 1
2098 700 15 -0.83 3.5266838024203935 13.870756372042765 1.1164323255614255 1 1 1
1519 507 15 -0.83 7.4219678131075915 13.064316074955427 3.9668556915010638 0 1 -1
2413 805 15 -0.83 0.734494835177702 13.56781245841522 -0.8997490251266644 0 0 -1
3945 1315 16 0.415 1.9024783530122866 16.905310362078982 1.567217432740521 2 0 1
2035 679 15 -0.83 5.486860140603687 12.054595001259074 1.9291206624885968 -1 1 0
2293 765 15 -0.83 1.2602722192749696 10.044932437885633 11.07926394789685 2 0 0
4319 1440 16 0.415 -0.6160970108689302 15.934642698711436 6.775303686589451 1 2 2
3370 1124 15 -0.83 -0.24664707861753316 13.279253462878863 2.1633385551451534 1 1 0
544 182 15 -0.83 0.9340957076177845 16.988245462258018 8.32101122218409 0 0 0
3358 1120 15 -0.83 5.6829079305707095 8.84993958200509 16.57810537960091 0 0 -1
3359 1120 16 0.415 6.4513551478999185 9.305806204012857 16.23474179205429 0 0 -1
1859 620 16 0.415 5.1083915323001055 13.756589712609488 13.151251321806457 0 0 1
1520 507 16 0.415 8.067784598139465 13.236262583529996 4.652114102647498 0 1 -1
1276 426 15 -0.83 7.086873702892635 9.430657340872708 12.92394495583265 0 1 0
677 226 16 0.415 3.3468951553070405 9.371352451942238 8.521948384917144 1 0 0
3360 1120 16 0.415 4.950669180971319 9.196158607731597 16.068024125272647 0 0 -1
2531 844 16 0.415 6.46081061452451 15.176426810899212 8.49225964927921 0 0 0
4346 1449 16 0.415 3.1289293953919577 13.820526541949253 10.36199952814991 0 0 0
4312 1438 15 -0.83 3.0166782078794037 15.165749109087205 14.05976766372663 -1 0 0
205 69 15 -0.83 5.14086027085798 15.906891938046156 5.427329692186366 0 0 0
1860 620 16 0.415 4.776026085814862 12.356086396168713 12.68221050123322 0 0 1
638 213 16 0.415 6.554647324842243 12.3060518190436 8.39511156145869 0 0 0
1694 565 16 0.415 6.041630785126252 12.907766016876193 16.82856971006146 0 0 -1
4314 1438 16 0.415 2.4313582638821645 15.004943901476894 13.319655313435488 -1 0 0