LAMMPS Atom File

         4500 atoms
         3000 bonds
         1500 angles
            0 dihedrals
            0 impropers

         16 atom types
         19 bond types
         24 angle types
         42 dihedral types

     0.02645   35.53280  xlo xhi
     0.02645   35.53280  ylo yhi
     0.02641   35.47360  zlo zhi

Masses # id, mass [g/mol]

 1  12.0100000 # CA (carbon aromatic)
 2   1.0080000 # HA (hydrogen aromatic)
 3  12.0100000 # C  (carbon in carboxyl)
 4  16.0000000 # O  (oxygen)
 5  14.0100000 # N (nitrogen with 1 hydrogen)
 6   1.0080000 # HN (hydrogen on nitrogen)
 7  16.0000000 # OH (protonated carboxyl oxygen)
 8  14.0100000 # NH (nitrogen with 2 hydrogens)
 9   1.0080000 # HO (hydrogen on oxygen)
 10 12.0100000 # LC (crosslinked carbon)
 11 14.0100000 # LN (crosslinked nitrogen)
 12 12.0100000 # CT (terminated carbon on carboxyl group)
 13  1.0080000 # H (free hydrogen for termination)
 14 16.0000000 # OR (reactive oxygen in free hydroxyl)
 15 16.0000000 # OW (oxygen in water)
 16  1.0080000 # HW (hydrogen in water)

Atoms

 1 1 15 -0.8300 12.12456 28.09298 22.27452
 2 1 16 0.4150 12.53683 28.75606 22.89928
 3 1 16 0.4150 11.49482 28.56390 21.65678
 4 2 15 -0.8300 1.17079 29.37777 23.72984
 5 2 16 0.4150 1.91804 29.48483 23.07399
 6 2 16 0.4150 0.40074 28.91964 23.28586
 7 3 15 -0.8300 29.68313 14.73733 21.62793
 8 3 16 0.4150 30.54284 14.93741 21.15800
 9 3 16 0.4150 29.73135 15.07344 22.56848
 10 4 15 -0.8300 10.87272 7.00153 35.10920
 11 4 16 0.4150 11.11057 6.21663 34.53712
 12 4 16 0.4150 9.95658 7.32301 34.86983
 13 5 15 -0.8300 9.46588 6.43648 19.79899
 14 5 16 0.4150 9.04840 6.32936 18.89668
 15 5 16 0.4150 10.31722 5.91326 19.83657
 16 6 15 -0.8300 3.17905 29.69801 22.11922
 17 6 16 0.4150 3.19240 30.63289 21.76465
 18 6 16 0.4150 3.38651 29.05797 21.37944
 19 7 15 -0.8300 23.38618 11.29979 30.78238
 20 7 16 0.4150 23.69882 10.46688 31.23897
 21 7 16 0.4150 24.17354 11.79208 30.41132
 22 8 15 -0.8300 11.03761 10.46106 30.14741
 23 8 16 0.4150 10.94682 11.45112 30.25464
 24 8 16 0.4150 11.60678 10.09680 30.88450
 25 9 15 -0.8300 26.24001 25.40937 21.06754
 26 9 16 0.4150 25.67045 26.09258 21.52442
 27 9 16 0.4150 26.22311 25.56759 20.08030
 28 10 15 -0.8300 10.84087 35.33915 19.78347
 29 10 16 0.4150 10.20697 0.54421 19.48018
 30 10 16 0.4150 11.06253 34.74012 19.01405
 31 11 15 -0.8300 20.07383 4.95885 33.62365
 32 11 16 0.4150 19.77359 5.87080 33.90322
 33 11 16 0.4150 20.68149 4.57954 34.32139
 34 12 15 -0.8300 12.43897 28.56656 17.39837
 35 12 16 0.4150 12.80348 27.99505 18.13354
 36 12 16 0.4150 11.63887 28.12177 16.99597
 37 13 15 -0.8300 14.80338 7.14199 1.42116
 38 13 16 0.4150 14.86001 6.68442 0.53382
 39 13 16 0.4150 14.13589 6.67036 1.99737
 40 14 15 -0.8300 15.87968 22.18330 24.13468
 41 14 16 0.4150 15.97100 22.71526 23.29285
 42 14 16 0.4150 16.69618 22.30846 24.69826
 43 15 15 -0.8300 13.29194 18.30473 12.37157
 44 15 16 0.4150 12.55838 18.63231 12.96701
 45 15 16 0.4150 13.24823 18.78335 11.49467
 46 16 15 -0.8300 20.27409 23.94157 15.50212
 47 16 16 0.4150 20.17851 24.67734 14.83167
 48 16 16 0.4150 20.62006 23.12024 15.04857
 49 17 15 -0.8300 30.10203 10.78182 14.24321
 50 17 16 0.4150 29.40171 11.00523 13.56532
 51 17 16 0.4150 29.70120 10.21329 14.96159
 52 18 15 -0.8300 19.71525 12.98975 25.40578
 53 18 16 0.4150 20.21522 13.35852 26.18938
 54 18 16 0.4150 18.75253 12.87297 25.64962
 55 19 15 -0.8300 4.22362 18.99305 32.62946
 56 19 16 0.4150 4.05067 18.17865 32.07556
 57 19 16 0.4150 3.38513 19.53353 32.69833
 58 20 15 -0.8300 17.67279 30.86798 34.86933
 59 20 16 0.4150 17.18866 31.74218 34.90528
 60 20 16 0.4150 18.18607 30.80612 34.01339
 61 21 15 -0.8300 7.49194 27.84024 34.65598
 62 21 16 0.4150 7.36412 27.37987 33.77752
 63 21 16 0.4150 7.83650 27.18529 35.32848
 64 22 15 -0.8300 9.58199 8.75878 28.38767
 65 22 16 0.4150 8.89931 8.96106 27.68557
 66 22 16 0.4150 9.61451 9.50981 29.04713
 67 23 15 -0.8300 18.15447 7.97877 4.02967
 68 23 16 0.4150 17.65379 8.02465 3.16529
 69 23 16 0.4150 17.56073 7.59903 4.73904
 70 24 15 -0.8300 13.45467 10.30195 21.94603
 71 24 16 0.4150 14.12655 11.01716 21.75366
 72 24 16 0.4150 13.15542 10.37304 22.89754
 73 25 15 -0.8300 28.77370 1.83495 6.23711
 74 25 16 0.4150 29.55410 1.23316 6.06742
 75 25 16 0.4150 28.43863 1.69170 7.16831
 76 26 15 -0.8300 21.17410 3.00906 4.56251
 77 26 16 0.4150 21.00772 2.96011 5.54734
 78 26 16 0.4150 21.17488 3.96581 4.27178
 79 27 15 -0.8300 15.86257 20.77629 10.34675
 80 27 16 0.4150 15.84751 19.99231 10.96732
 81 27 16 0.4150 15.76759 20.45695 9.40393
 82 28 15 -0.8300 19.37283 6.41248 28.33230
 83 28 16 0.4150 19.86925 6.14505 27.50645
 84 28 16 0.4150 19.23659 7.40311 28.33322
 85 29 15 -0.8300 19.69874 26.80111 22.56675
 86 29 16 0.4150 20.51873 26.54536 22.05471
 87 29 16 0.4150 19.52519 26.12131 23.27927
 88 30 15 -0.8300 10.44934 1.95847 4.23874
 89 30 16 0.4150 10.99436 1.49085 4.93460
 90 30 16 0.4150 10.84502 2.85816 4.05448
 91 31 15 -0.8300 6.35411 29.19722 23.17920
 92 31 16 0.4150 5.50252 29.65394 23.43641
 93 31 16 0.4150 7.01350 29.87731 22.85887
 94 32 15 -0.8300 27.70305 33.63868 1.45545
 95 32 16 0.4150 27.45511 34.56848 1.72731
 96 32 16 0.4150 28.23820 33.21008 2.18338
 97 33 15 -0.8300 34.54150 25.90721 10.97268
 98 33 16 0.4150 34.26945 25.07242 10.49403
 99 33 16 0.4150 34.74630 26.62266 10.30478
 100 34 15 -0.8300 35.13701 10.35159 32.75388
 101 34 16 0.4150 35.31674 9.89658 31.88174
 102 34 16 0.4150 35.40693 9.74994 33.50557
 103 35 15 -0.8300 19.45549 25.22953 13.06888
 104 35 16 0.4150 18.63554 25.79082 12.95680
 105 35 16 0.4150 19.57263 24.64638 12.26505
 106 36 15 -0.8300 8.76637 34.60601 24.20146
 107 36 16 0.4150 9.50956 34.70873 24.86259
 108 36 16 0.4150 9.11640 34.17220 23.37125
 109 37 15 -0.8300 18.52185 34.00287 24.76220
 110 37 16 0.4150 19.50193 33.87409 24.61123
 111 37 16 0.4150 18.00811 33.44318 24.11196
 112 38 15 -0.8300 5.46879 16.75651 12.09359
 113 38 16 0.4150 5.19937 17.67659 11.80934
 114 38 16 0.4150 5.65240 16.75172 13.07654
 115 39 15 -0.8300 26.78187 26.54273 35.17124
 116 39 16 0.4150 27.38399 26.93341 0.42029
 117 39 16 0.4150 27.18089 25.69431 34.82353
 118 40 15 -0.8300 14.04248 15.27305 12.41517
 119 40 16 0.4150 14.36157 15.76500 13.22517
 120 40 16 0.4150 14.30963 15.77579 11.59307
 121 41 15 -0.8300 6.75576 6.34672 6.04938
 122 41 16 0.4150 7.58170 5.78427 6.08735
 123 41 16 0.4150 5.98388 5.83092 6.42094
 124 42 15 -0.8300 10.86576 34.93065 25.98166
 125 42 16 0.4150 10.69405 35.32452 26.88460
 126 42 16 0.4150 11.59169 35.44574 25.52591
 127 43 15 -0.8300 18.34531 30.51202 26.27445
 128 43 16 0.4150 18.04166 30.29551 25.34662
 129 43 16 0.4150 19.17552 31.06784 26.23227
 130 44 15 -0.8300 13.18486 0.77946 20.62491
 131 44 16 0.4150 13.44906 0.56426 21.56501
 132 44 16 0.4150 12.29152 0.37510 20.42885
 133 45 15 -0.8300 24.47790 24.05885 28.20937
 134 45 16 0.4150 24.15706 23.14172 27.97301
 135 45 16 0.4150 23.74391 24.71952 28.05213
 136 46 15 -0.8300 30.79103 15.33785 34.86738
 137 46 16 0.4150 31.17614 15.32312 0.34290
 138 46 16 0.4150 29.97833 14.75605 34.83605
 139 47 15 -0.8300 18.30892 19.76908 34.23734
 140 47 16 0.4150 17.75981 20.19846 33.52035
 141 47 16 0.4150 19.04827 19.24096 33.81970
 142 48 15 -0.8300 24.18923 16.21113 25.53917
 143 48 16 0.4150 24.35093 17.17602 25.33219
 144 48 16 0.4150 24.25573 16.06630 26.52637
 145 49 15 -0.8300 9.29176 8.02479 32.23837
 146 49 16 0.4150 10.25650 7.88688 32.46243
 147 49 16 0.4150 8.95956 7.24816 31.70319
 148 50 15 -0.8300 5.32982 1.15354 27.64551
 149 50 16 0.4150 4.51900 0.59091 27.48437
 150 50 16 0.4150 5.05010 2.09452 27.83594
 151 51 15 -0.8300 22.89850 21.33836 11.63894
 152 51 16 0.4150 23.24391 20.51986 12.09802
 153 51 16 0.4150 22.43572 21.07543 10.79239
 154 52 15 -0.8300 16.88462 32.60779 23.16332
 155 52 16 0.4150 15.90624 32.80151 23.09101
 156 52 16 0.4150 17.01667 31.65114 23.42276
 157 53 15 -0.8300 29.24409 7.09722 23.70701
 158 53 16 0.4150 28.47748 7.53121 24.18023
 159 53 16 0.4150 29.54220 7.68009 22.95113
 160 54 15 -0.8300 34.29952 6.85677 2.08156
 161 54 16 0.4150 34.97347 6.89704 1.34390
 162 54 16 0.4150 33.70962 7.66305 2.03849
 163 55 15 -0.8300 32.95408 29.26891 19.25970
 164 55 16 0.4150 32.57416 28.37248 19.48784
 165 55 16 0.4150 33.66659 29.16225 18.56621
 166 56 15 -0.8300 9.78186 33.73160 21.96701
 167 56 16 0.4150 9.24351 33.11436 21.39330
 168 56 16 0.4150 10.15276 34.47066 21.40475
 169 57 15 -0.8300 7.86139 6.97451 8.72713
 170 57 16 0.4150 8.16632 6.08021 9.05452
 171 57 16 0.4150 7.15204 6.85123 8.03315
 172 58 15 -0.8300 34.25223 27.81706 31.79312
 173 58 16 0.4150 34.70046 28.60821 31.37704
 174 58 16 0.4150 33.75216 28.10807 32.60872
 175 59 15 -0.8300 34.94048 26.84844 19.52041
 176 59 16 0.4150 35.40459 26.00577 19.79339
 177 59 16 0.4150 34.15050 26.62404 18.94986
 178 60 15 -0.8300 21.76411 32.20568 20.89158
 179 60 16 0.4150 22.66239 31.82480 21.11072
 180 60 16 0.4150 21.76667 33.18956 21.07031
 181 61 15 -0.8300 34.30787 3.43694 14.24158
 182 61 16 0.4150 34.88829 2.82261 13.70711
 183 61 16 0.4150 34.87977 4.10183 14.72200
 184 62 15 -0.8300 17.88110 18.91029 14.42187
 185 62 16 0.4150 17.92538 18.97676 15.41864
 186 62 16 0.4150 18.59574 19.48109 14.01766
 187 63 15 -0.8300 19.08402 14.22906 20.78379
 188 63 16 0.4150 19.62169 13.82628 21.52446
 189 63 16 0.4150 18.62450 13.50292 20.27246
 190 64 15 -0.8300 7.85997 17.97828 9.48138
 191 64 16 0.4150 7.51843 18.85870 9.15243
 192 64 16 0.4150 8.12328 17.41050 8.70147
 193 65 15 -0.8300 0.30367 23.18327 0.38100
 194 65 16 0.4150 35.34479 24.06840 0.38922
 195 65 16 0.4150 35.13158 22.44974 0.42108
 196 66 15 -0.8300 4.53675 21.21621 29.86203
 197 66 16 0.4150 5.08827 22.03780 29.71779
 198 66 16 0.4150 5.02017 20.59411 30.47781
 199 67 15 -0.8300 3.76321 1.66558 34.11622
 200 67 16 0.4150 4.72980 1.83277 33.92193
 201 67 16 0.4150 3.56027 1.93821 35.05667
 202 68 15 -0.8300 35.17951 34.70220 7.53093
 203 68 16 0.4150 34.22070 34.47397 7.36203
 204 68 16 0.4150 0.09341 33.98533 8.08720
 205 69 15 -0.8300 24.82000 8.21485 16.09338
 206 69 16 0.4150 25.55821 8.87272 15.94450
 207 69 16 0.4150 25.00950 7.68219 16.91816
 208 70 15 -0.8300 4.18282 28.52828 29.70840
 209 70 16 0.4150 5.11675 28.38566 30.03614
 210 70 16 0.4150 4.20438 29.05790 28.86047
 211 71 15 -0.8300 26.43717 31.27303 3.91741
 212 71 16 0.4150 26.51838 30.56852 3.21243
 213 71 16 0.4150 27.32007 31.72670 4.03853
 214 72 15 -0.8300 35.11244 7.70363 27.08017
 215 72 16 0.4150 35.17419 7.38841 28.02717
 216 72 16 0.4150 34.54388 7.07077 26.55463
 217 73 15 -0.8300 21.45404 34.05655 2.90167
 218 73 16 0.4150 21.02487 33.76274 3.75574
 219 73 16 0.4150 22.28101 34.57992 3.10701
 220 74 15 -0.8300 31.21242 3.31299 25.80396
 221 74 16 0.4150 30.72513 4.00625 25.27307
 222 74 16 0.4150 31.51511 3.70889 26.67093
 223 75 15 -0.8300 7.36998 1.04818 25.83115
 224 75 16 0.4150 7.49443 0.23812 25.25822
 225 75 16 0.4150 6.65222 0.87278 26.50493
 226 76 15 -0.8300 30.34479 6.09271 15.73480
 227 76 16 0.4150 30.87025 5.55980 15.07161
 228 76 16 0.4150 30.41783 5.66752 16.63693
 229 77 15 -0.8300 34.94002 25.15376 32.03668
 230 77 16 0.4150 34.65462 24.57426 32.80000
 231 77 16 0.4150 34.57715 26.07671 32.16507
 232 78 15 -0.8300 0.48609 26.41083 7.95690
 233 78 16 0.4150 35.24442 26.06137 7.39276
 234 78 16 0.4150 0.34398 27.38491 8.13268
 235 79 15 -0.8300 28.55527 15.83548 29.53063
 236 79 16 0.4150 28.35434 16.81126 29.61648
 237 79 16 0.4150 29.51472 15.71387 29.27644
 238 80 15 -0.8300 18.14783 14.69040 4.78991
 239 80 16 0.4150 18.53030 15.52266 5.19110
 240 80 16 0.4150 17.28957 14.90833 4.32534
 241 81 15 -0.8300 23.98866 17.79905 4.00089
 242 81 16 0.4150 24.91076 17.80239 3.61409
 243 81 16 0.4150 23.56034 16.91103 3.83379
 244 82 15 -0.8300 27.78613 18.39989 29.82640
 245 82 16 0.4150 27.08378 18.93614 30.29448
 246 82 16 0.4150 28.35313 19.00694 29.26967
 247 83 15 -0.8300 32.55865 20.99313 23.15964
 248 83 16 0.4150 33.14482 20.54010 22.48798
 249 83 16 0.4150 32.46068 21.95876 22.91902
 250 84 15 -0.8300 0.52838 10.68840 20.51354
 251 84 16 0.4150 35.18409 10.69540 21.03922
 252 84 16 0.4150 1.10279 11.45563 20.79882
 253 85 15 -0.8300 24.98681 7.82783 20.94061
 254 85 16 0.4150 25.90983 7.94912 20.57557
 255 85 16 0.4150 24.31734 8.12211 20.25857
 256 86 15 -0.8300 22.84393 20.12521 4.77949
 257 86 16 0.4150 23.21948 19.20137 4.85318
 258 86 16 0.4150 23.56755 20.75818 4.50442
 259 87 15 -0.8300 33.53546 10.01481 10.45635
 260 87 16 0.4150 32.83119 9.35450 10.71703
 261 87 16 0.4150 34.10172 10.22977 11.25204
 262 88 15 -0.8300 16.00583 10.01890 6.93528
 263 88 16 0.4150 16.41480 10.74688 6.38507
 264 88 16 0.4150 15.01766 10.16046 6.99384
 265 89 15 -0.8300 29.81145 30.32235 24.40624
 266 89 16 0.4150 29.91989 30.02878 25.35598
 267 89 16 0.4150 29.93572 29.53794 23.79868
 268 90 15 -0.8300 4.63663 9.89409 32.09045
 269 90 16 0.4150 4.00394 9.69969 31.34088
 270 90 16 0.4150 5.49457 9.40350 31.93817
 271 91 15 -0.8300 32.85747 18.79237 15.26420
 272 91 16 0.4150 33.07562 17.88380 15.62037
 273 91 16 0.4150 33.39393 19.47988 15.75358
 274 92 15 -0.8300 0.61908 7.95150 15.25321
 275 92 16 0.4150 0.05994 7.85361 16.07647
 276 92 16 0.4150 35.53017 8.04513 14.45519
 277 93 15 -0.8300 2.41100 1.86682 23.94422
 278 93 16 0.4150 2.46310 1.85101 22.94575
 279 93 16 0.4150 2.78298 1.01413 24.31096
 280 94 15 -0.8300 35.13183 4.79424 16.91501
 281 94 16 0.4150 34.79462 5.73186 16.83068
 282 94 16 0.4150 34.48810 4.25622 17.45916
 283 95 15 -0.8300 0.97118 31.04426 15.17959
 284 95 16 0.4150 35.51597 31.29963 15.28033
 285 95 16 0.4150 1.24465 30.46576 15.94801
 286 96 15 -0.8300 2.19969 4.72227 17.02777
 287 96 16 0.4150 2.38681 5.64899 17.35356
 288 96 16 0.4150 1.21985 4.62094 16.85574
 289 97 15 -0.8300 11.32464 9.43507 18.23393
 290 97 16 0.4150 11.35628 9.66113 17.26037
 291 97 16 0.4150 10.41863 9.65219 18.59726
 292 98 15 -0.8300 1.17633 29.87451 2.30651
 293 98 16 0.4150 0.77781 30.54458 1.68034
 294 98 16 0.4150 2.08692 30.17937 2.58550
 295 99 15 -0.8300 30.89603 1.46693 1.97982
 296 99 16 0.4150 31.66382 1.01488 2.43382
 297 99 16 0.4150 30.67056 0.97609 1.13828
 298 100 15 -0.8300 5.03295 1.93998 10.31545
 299 100 16 0.4150 4.31256 1.98624 11.00745
 300 100 16 0.4150 4.62804 2.03388 9.40598
 301 101 15 -0.8300 12.08877 2.72082 8.77105
 302 101 16 0.4150 11.73932 2.99595 9.66666
 303 101 16 0.4150 12.21940 3.53177 8.20074
 304 102 15 -0.8300 33.01497 6.97472 32.69727
 305 102 16 0.4150 32.33382 6.98790 31.96528
 306 102 16 0.4150 33.92894 7.07439 32.30391
 307 103 15 -0.8300 24.19758 6.71414 6.62083
 308 103 16 0.4150 24.48496 5.94255 6.05339
 309 103 16 0.4150 23.34354 7.09140 6.26267
 310 104 15 -0.8300 11.20786 33.66002 13.73986
 311 104 16 0.4150 11.08611 33.96434 12.79516
 312 104 16 0.4150 12.16057 33.79345 14.01284
 313 105 15 -0.8300 9.04560 20.24739 13.13311
 314 105 16 0.4150 8.82766 19.47789 13.73338
 315 105 16 0.4150 9.27855 19.90464 12.22304
 316 106 15 -0.8300 8.42921 16.29486 7.43324
 317 106 16 0.4150 9.19124 15.72058 7.13424
 318 106 16 0.4150 7.64285 15.71749 7.65276
 319 107 15 -0.8300 8.18016 30.95703 14.07257
 320 107 16 0.4150 7.61764 30.47123 14.74149
 321 107 16 0.4150 7.67505 31.74583 13.72246
 322 108 15 -0.8300 17.76414 27.72204 30.17860
 323 108 16 0.4150 17.65280 28.63562 29.78755
 324 108 16 0.4150 17.44856 27.72492 31.12746
 325 109 15 -0.8300 17.45769 25.85512 16.78307
 326 109 16 0.4150 18.01645 26.62724 17.08576
 327 109 16 0.4150 17.96426 25.00368 16.91877
 328 110 15 -0.8300 28.59997 12.45467 18.30443
 329 110 16 0.4150 28.86886 12.50061 17.34240
 330 110 16 0.4150 28.32838 13.36441 18.61842
 331 111 15 -0.8300 20.03964 19.60707 21.61488
 332 111 16 0.4150 19.21429 19.35873 22.12192
 333 111 16 0.4150 20.56705 20.27317 22.14227
 334 112 15 -0.8300 24.43021 31.08112 15.27434
 335 112 16 0.4150 24.67230 31.05676 14.30439
 336 112 16 0.4150 23.62159 31.65540 15.40173
 337 113 15 -0.8300 14.03481 4.28377 28.23021
 338 113 16 0.4150 13.71830 5.06061 27.68592
 339 113 16 0.4150 14.81307 3.85222 27.77408
 340 114 15 -0.8300 3.18866 1.92022 1.25228
 341 114 16 0.4150 3.95739 2.04883 1.87873
 342 114 16 0.4150 2.56934 1.22782 1.62238
 343 115 15 -0.8300 22.54465 23.60224 9.46826
 344 115 16 0.4150 22.81528 22.78339 8.96211
 345 115 16 0.4150 23.34546 23.99391 9.92131
 346 116 15 -0.8300 6.44525 3.02083 18.87605
 347 116 16 0.4150 5.96940 2.76314 19.71693
 348 116 16 0.4150 5.93293 2.68338 18.08636
 349 117 15 -0.8300 12.31665 10.94306 26.18378
 350 117 16 0.4150 11.78278 11.60820 26.70581
 351 117 16 0.4150 12.52820 10.15648 26.76387
 352 118 15 -0.8300 8.93649 1.70958 18.81431
 353 118 16 0.4150 9.43794 2.41836 19.31046
 354 118 16 0.4150 8.03395 2.05639 18.55926
 355 119 15 -0.8300 2.23387 20.21809 0.67571
 356 119 16 0.4150 1.96454 19.32973 0.30400
 357 119 16 0.4150 1.48917 20.87294 0.54693
 358 120 15 -0.8300 32.34699 18.13646 22.38224
 359 120 16 0.4150 31.75911 18.90777 22.62608
 360 120 16 0.4150 32.85409 17.83551 23.18984
 361 121 15 -0.8300 20.24600 32.09543 18.49475
 362 121 16 0.4150 19.37450 32.56379 18.64008
 363 121 16 0.4150 20.82295 32.20632 19.30394
 364 122 15 -0.8300 32.44396 13.48495 19.54721
 365 122 16 0.4150 32.49225 14.27437 20.15914
 366 122 16 0.4150 31.99587 13.75157 18.69393
 367 123 15 -0.8300 35.26586 18.21614 1.39574
 368 123 16 0.4150 0.12239 18.40827 2.30752
 369 123 16 0.4150 34.49009 17.58963 1.47095
 370 124 15 -0.8300 3.39252 26.43728 7.35930
 371 124 16 0.4150 2.42858 26.42070 7.62480
 372 124 16 0.4150 3.52347 25.87316 6.54412
 373 125 15 -0.8300 15.94721 21.75698 15.77077
 374 125 16 0.4150 16.58200 22.15497 15.10848
 375 125 16 0.4150 15.22931 21.25758 15.28582
 376 126 15 -0.8300 20.49377 23.57178 7.41254
 377 126 16 0.4150 19.70411 23.45223 8.01425
 378 126 16 0.4150 21.29088 23.83328 7.95669
 379 127 15 -0.8300 6.64565 4.33685 1.91046
 380 127 16 0.4150 6.29368 4.91344 1.17318
 381 127 16 0.4150 7.51811 4.70392 2.23304
 382 128 15 -0.8300 26.70656 32.89276 9.89051
 383 128 16 0.4150 26.59749 31.89883 9.88051
 384 128 16 0.4150 27.36144 33.14912 10.60140
 385 129 15 -0.8300 5.48704 32.63030 12.93174
 386 129 16 0.4150 5.73825 33.49250 13.37160
 387 129 16 0.4150 4.53739 32.40792 13.15229
 388 130 15 -0.8300 3.37091 5.95470 9.99334
 389 130 16 0.4150 3.99627 6.57052 10.47252
 390 130 16 0.4150 3.39679 5.05241 10.42360
 391 131 15 -0.8300 2.63445 9.37840 30.00842
 392 131 16 0.4150 2.81625 9.87705 29.16095
 393 131 16 0.4150 1.69314 9.04098 30.00123
 394 132 15 -0.8300 0.97785 8.01694 8.99862
 395 132 16 0.4150 1.85940 8.12605 8.53940
 396 132 16 0.4150 0.38758 8.79268 8.77566
 397 133 15 -0.8300 2.73822 11.52983 15.38585
 398 133 16 0.4150 3.54689 11.84375 15.88332
 399 133 16 0.4150 2.92713 10.64019 14.97013
 400 134 15 -0.8300 18.35568 23.16903 17.37047
 401 134 16 0.4150 17.78374 22.43717 17.00005
 402 134 16 0.4150 19.06840 23.40230 16.70899
 403 135 15 -0.8300 9.13053 4.89654 5.72398
 404 135 16 0.4150 9.75352 5.64004 5.96693
 405 135 16 0.4150 9.45310 4.04375 6.13467
 406 136 15 -0.8300 7.31448 35.35133 12.86442
 407 136 16 0.4150 7.78778 35.16424 13.72519
 408 136 16 0.4150 6.36291 0.08760 13.05321
 409 137 15 -0.8300 0.52118 24.39975 19.66486
 410 137 16 0.4150 0.83476 23.57085 20.12801
 411 137 16 0.4150 0.24832 24.17585 18.72923
 412 138 15 -0.8300 11.64306 23.42080 11.52906
 413 138 16 0.4150 12.61679 23.64677 11.50116
 414 138 16 0.4150 11.14825 24.13853 12.01894
 415 139 15 -0.8300 3.45756 3.18529 19.12957
 416 139 16 0.4150 3.12124 3.74194 18.36997
 417 139 16 0.4150 3.81274 3.78249 19.84869
 418 140 15 -0.8300 20.63306 31.64067 26.89364
 419 140 16 0.4150 21.22839 31.75801 26.09881
 420 140 16 0.4150 20.82429 32.35914 27.56232
 421 141 15 -0.8300 27.87238 20.32866 9.33395
 422 141 16 0.4150 27.02686 20.77238 9.03698
 423 141 16 0.4150 27.66058 19.63412 10.02149
 424 142 15 -0.8300 31.29036 11.93464 0.40169
 425 142 16 0.4150 31.37881 12.03516 1.39266
 426 142 16 0.4150 30.32288 11.95452 0.14970
 427 143 15 -0.8300 21.39492 7.42434 2.71837
 428 143 16 0.4150 22.26919 6.94124 2.67113
 429 143 16 0.4150 21.01752 7.34108 3.64064
 430 144 15 -0.8300 20.01912 19.53687 17.16647
 431 144 16 0.4150 19.03559 19.42765 17.02256
 432 144 16 0.4150 20.17677 20.10021 17.97747
 433 145 15 -0.8300 3.61472 34.67433 24.72232
 434 145 16 0.4150 3.58465 34.54040 25.71283
 435 145 16 0.4150 4.55220 34.54959 24.39742
 436 146 15 -0.8300 23.41665 19.55686 18.89810
 437 146 16 0.4150 24.10125 19.00406 18.42300
 438 146 16 0.4150 22.99870 20.19654 18.25307
 439 147 15 -0.8300 13.01993 3.81803 4.38911
 440 147 16 0.4150 13.38071 3.06814 3.83464
 441 147 16 0.4150 12.92360 4.63574 3.82163
 442 148 15 -0.8300 15.28417 28.36986 13.07087
 443 148 16 0.4150 15.75033 28.86687 12.33902
 444 148 16 0.4150 14.37943 28.08353 12.75556
 445 149 15 -0.8300 31.07288 4.64018 29.64410
 446 149 16 0.4150 30.89042 5.35240 30.32192
 447 149 16 0.4150 31.28496 5.06438 28.76373
 448 150 15 -0.8300 18.66998 22.71969 9.28241
 449 150 16 0.4150 19.43319 22.68014 9.92730
 450 150 16 0.4150 18.18674 21.84425 9.28383
 451 151 15 -0.8300 20.67684 4.79499 26.44460
 452 151 16 0.4150 21.36307 4.90680 25.72591
 453 151 16 0.4150 19.86562 4.35059 26.06464
 454 152 15 -0.8300 23.32494 28.59379 34.87592
 455 152 16 0.4150 22.34422 28.77672 34.80776
 456 152 16 0.4150 23.47151 27.61801 35.03820
 457 153 15 -0.8300 19.30434 32.15966 13.01468
 458 153 16 0.4150 18.79685 32.17514 13.87616
 459 153 16 0.4150 19.74774 33.04469 12.87307
 460 154 15 -0.8300 34.76355 20.49891 35.24394
 461 154 16 0.4150 34.80087 20.22981 34.28158
 462 154 16 0.4150 34.89670 19.69303 0.37358
 463 155 15 -0.8300 13.98652 1.37155 3.23039
 464 155 16 0.4150 13.54990 0.47234 3.25696
 465 155 16 0.4150 14.88021 1.32142 3.67626
 466 156 15 -0.8300 24.96125 8.59168 8.51399
 467 156 16 0.4150 24.90010 7.88536 7.80880
 468 156 16 0.4150 25.92109 8.74798 8.74688
 469 157 15 -0.8300 14.17804 14.86661 29.62017
 470 157 16 0.4150 14.50622 13.96710 29.90836
 471 157 16 0.4150 13.20875 14.80710 29.38165
 472 158 15 -0.8300 32.49214 9.01293 2.57301
 473 158 16 0.4150 31.88516 8.85624 3.35211
 474 158 16 0.4150 32.99481 9.86668 2.70850
 475 159 15 -0.8300 33.47883 32.17624 27.46842
 476 159 16 0.4150 33.32942 32.21278 28.45647
 477 159 16 0.4150 34.06965 31.39983 27.24918
 478 160 15 -0.8300 31.09621 6.22320 0.75259
 479 160 16 0.4150 31.59348 5.78768 35.44946
 480 160 16 0.4150 31.36134 7.18545 0.81397
 481 161 15 -0.8300 14.57216 18.78960 19.08835
 482 161 16 0.4150 15.51077 18.79497 19.43321
 483 161 16 0.4150 14.22722 17.85110 19.07534
 484 162 15 -0.8300 34.12274 15.77227 34.76104
 485 162 16 0.4150 34.17490 15.19579 0.12925
 486 162 16 0.4150 33.34160 16.39158 34.84009
 487 163 15 -0.8300 27.18476 6.31416 11.14438
 488 163 16 0.4150 27.19357 6.88440 10.32300
 489 163 16 0.4150 26.82710 6.84346 11.91376
 490 164 15 -0.8300 11.84314 26.77963 35.28640
 491 164 16 0.4150 10.96567 26.43433 0.17205
 492 164 16 0.4150 12.49337 26.82363 0.59765
 493 165 15 -0.8300 7.69412 20.72079 27.49780
 494 165 16 0.4150 7.69014 21.70350 27.31291
 495 165 16 0.4150 7.81598 20.22083 26.64044
 496 166 15 -0.8300 23.50826 8.78434 32.03012
 497 166 16 0.4150 23.26862 8.22923 31.23365
 498 166 16 0.4150 23.39645 8.24013 32.86157
 499 167 15 -0.8300 15.57156 13.00008 12.60169
 500 167 16 0.4150 14.79081 13.54649 12.90466
 501 167 16 0.4150 15.45716 12.76130 11.63738
 502 168 15 -0.8300 11.29876 27.92926 8.68449
 503 168 16 0.4150 11.64644 27.07029 8.30868
 504 168 16 0.4150 11.27909 28.62394 7.96544
 505 169 15 -0.8300 15.75868 14.55512 3.49819
 506 169 16 0.4150 16.03520 15.14903 2.74271
 507 169 16 0.4150 15.61473 13.62638 3.15656
 508 170 15 -0.8300 29.04153 26.88438 19.85085
 509 170 16 0.4150 28.56574 26.75357 18.98108
 510 170 16 0.4150 28.97499 27.84337 20.12624
 511 171 15 -0.8300 28.02811 8.84491 0.36833
 512 171 16 0.4150 29.02395 8.89761 0.29466
 513 171 16 0.4150 27.77104 8.71695 1.32619
 514 172 15 -0.8300 32.75013 2.39378 21.01859
 515 172 16 0.4150 32.14493 1.59871 20.97960
 516 172 16 0.4150 33.70131 2.09215 20.95322
 517 173 15 -0.8300 16.25250 5.40744 30.72899
 518 173 16 0.4150 16.73137 6.28231 30.80113
 519 173 16 0.4150 16.60479 4.89842 29.94366
 520 174 15 -0.8300 28.57796 22.31517 24.22429
 521 174 16 0.4150 28.58470 23.09656 24.84827
 522 174 16 0.4150 29.27495 21.65646 24.50755
 523 175 15 -0.8300 31.71292 17.98411 9.79888
 524 175 16 0.4150 32.59827 17.60937 10.07395
 525 175 16 0.4150 31.02797 17.76528 10.49379
 526 176 15 -0.8300 28.82118 33.24498 34.59564
 527 176 16 0.4150 28.54721 33.97957 33.97493
 528 176 16 0.4150 28.33279 33.34188 35.46282
 529 177 15 -0.8300 34.60878 19.71536 32.71287
 530 177 16 0.4150 34.64592 19.24398 31.83176
 531 177 16 0.4150 33.91982 20.43912 32.67487
 532 178 15 -0.8300 17.69608 27.65071 3.21742
 533 178 16 0.4150 18.46713 27.41434 3.80862
 534 178 16 0.4150 17.78836 28.59848 2.91219
 535 179 15 -0.8300 26.68813 34.62171 27.49337
 536 179 16 0.4150 26.45510 35.44751 28.00690
 537 179 16 0.4150 26.59489 34.80084 26.51400
 538 180 15 -0.8300 21.33619 26.62475 14.50460
 539 180 16 0.4150 20.69573 26.16271 13.89115
 540 180 16 0.4150 22.25918 26.57281 14.12340
 541 181 15 -0.8300 0.36454 14.16600 2.11556
 542 181 16 0.4150 0.97624 14.65982 1.49757
 543 181 16 0.4150 35.11443 13.77344 1.59245
 544 182 15 -0.8300 23.79319 1.57159 23.81505
 545 182 16 0.4150 23.00502 1.11432 24.22691
 546 182 16 0.4150 23.48929 2.12744 23.04135
 547 183 15 -0.8300 8.54975 33.46239 4.50736
 548 183 16 0.4150 9.38674 33.19180 4.03176
 549 183 16 0.4150 7.78193 33.44464 3.86700
 550 184 15 -0.8300 33.97496 22.17620 28.93863
 551 184 16 0.4150 33.73550 23.05012 29.36155
 552 184 16 0.4150 34.53692 22.34106 28.12813
 553 185 15 -0.8300 14.49504 4.44877 8.81426
 554 185 16 0.4150 14.11718 4.62743 7.90582
 555 185 16 0.4150 15.42318 4.81711 8.86750
 556 186 15 -0.8300 33.79611 24.01791 9.18291
 557 186 16 0.4150 33.97006 23.08648 8.86336
 558 186 16 0.4150 33.55971 24.59880 8.40407
 559 187 15 -0.8300 16.22846 19.00342 12.26604
 560 187 16 0.4150 16.94871 18.98450 12.95946
 561 187 16 0.4150 15.35887 18.73631 12.68134
 562 188 15 -0.8300 31.00840 33.57317 32.25266
 563 188 16 0.4150 30.94716 33.24371 33.19481
 564 188 16 0.4150 30.29274 33.14344 31.70212
 565 189 15 -0.8300 2.10006 7.03828 25.49380
 566 189 16 0.4150 1.34846 7.26527 26.11306
 567 189 16 0.4150 2.26908 6.05309 25.52187
 568 190 15 -0.8300 20.39048 7.66788 35.45350
 569 190 16 0.4150 20.32745 7.14917 0.85891
 570 190 16 0.4150 21.31606 7.58937 35.08326
 571 191 15 -0.8300 29.27392 19.03193 27.68532
 572 191 16 0.4150 28.40799 18.61701 27.40610
 573 191 16 0.4150 30.00918 18.69729 27.09597
 574 192 15 -0.8300 13.93940 22.66146 17.38525
 575 192 16 0.4150 14.79020 22.51805 16.87977
 576 192 16 0.4150 14.02994 23.46909 17.96790
 577 193 15 -0.8300 25.12845 22.92439 17.53845
 578 193 16 0.4150 24.27881 22.39854 17.57699
 579 193 16 0.4150 25.76341 22.58310 18.23148
 580 194 15 -0.8300 14.81424 28.36357 3.79200
 581 194 16 0.4150 15.79031 28.28929 3.58772
 582 194 16 0.4150 14.69331 28.63885 4.74570
 583 195 15 -0.8300 9.41760 1.55572 11.44122
 584 195 16 0.4150 9.09058 1.02170 12.22084
 585 195 16 0.4150 9.03168 1.18373 10.59704
 586 196 15 -0.8300 0.58572 35.29558 12.11489
 587 196 16 0.4150 1.04027 34.42603 11.92181
 588 196 16 0.4150 35.34646 35.43381 11.46305
 589 197 15 -0.8300 24.99565 27.11368 22.85908
 590 197 16 0.4150 24.94466 26.62404 23.72948
 591 197 16 0.4150 24.97275 28.09884 23.02901
 592 198 15 -0.8300 28.09827 27.08137 14.36745
 593 198 16 0.4150 28.14567 26.09053 14.49365
 594 198 16 0.4150 28.79796 27.36787 13.71303
 595 199 15 -0.8300 29.44158 8.93119 21.38827
 596 199 16 0.4150 29.92798 9.47643 20.70555
 597 199 16 0.4150 28.77321 8.34420 20.93150
 598 200 15 -0.8300 5.82233 14.89623 2.82244
 599 200 16 0.4150 5.70821 13.97491 3.19408
 600 200 16 0.4150 5.10567 15.07479 2.14829
 601 201 15 -0.8300 31.11315 8.01659 27.88429
 602 201 16 0.4150 31.51235 8.74883 27.33255
 603 201 16 0.4150 30.79916 7.28065 27.28448
 604 202 15 -0.8300 24.92095 28.59181 25.96921
 605 202 16 0.4150 25.90902 28.48362 25.85968
 606 202 16 0.4150 24.73202 29.09078 26.81495
 607 203 15 -0.8300 34.86059 10.30036 12.87353
 608 203 16 0.4150 34.64887 9.32336 12.89739
 609 203 16 0.4150 34.24783 10.78945 13.49425
 610 204 15 -0.8300 10.31573 24.57994 6.57007
 611 204 16 0.4150 9.42999 24.66399 7.02652
 612 204 16 0.4150 10.17346 24.38675 5.59931
 613 205 15 -0.8300 4.30063 0.28530 18.84890
 614 205 16 0.4150 3.76992 0.99348 19.31450
 615 205 16 0.4150 4.35052 0.49419 17.87226
 616 206 15 -0.8300 8.41827 15.48929 34.91520
 617 206 16 0.4150 8.57237 16.15336 34.18361
 618 206 16 0.4150 8.04251 14.64754 34.52759
 619 207 15 -0.8300 6.19035 7.54030 24.21894
 620 207 16 0.4150 5.98782 8.51233 24.33762
 621 207 16 0.4150 6.98218 7.43584 23.61726
 622 208 15 -0.8300 1.08041 14.41014 23.75419
 623 208 16 0.4150 0.61056 15.08927 23.19030
 624 208 16 0.4150 0.47286 13.63227 23.91466
 625 209 15 -0.8300 31.67035 8.22586 14.08427
 626 209 16 0.4150 31.10235 7.76414 14.76556
 627 209 16 0.4150 31.37149 9.17541 13.98941
 628 210 15 -0.8300 4.32304 13.16675 34.02448
 629 210 16 0.4150 4.93961 13.82550 33.59337
 630 210 16 0.4150 3.51145 13.04635 33.45283
 631 211 15 -0.8300 22.65976 11.99198 8.47744
 632 211 16 0.4150 22.58083 11.20406 9.08809
 633 211 16 0.4150 22.40561 11.72100 7.54908
 634 212 15 -0.8300 12.56499 8.92537 31.88900
 635 212 16 0.4150 12.96543 8.59761 32.74470
 636 212 16 0.4150 12.39885 8.14974 31.28016
 637 213 15 -0.8300 7.37183 21.64222 6.22392
 638 213 16 0.4150 7.16919 22.55931 5.88065
 639 213 16 0.4150 7.30951 20.98418 5.47358
 640 214 15 -0.8300 27.00762 16.63398 8.08993
 641 214 16 0.4150 26.39609 16.89271 8.83762
 642 214 16 0.4150 27.41015 15.73918 8.28309
 643 215 15 -0.8300 7.19611 3.79417 31.59334
 644 215 16 0.4150 7.16103 3.74933 30.59497
 645 215 16 0.4150 8.13759 3.95988 31.88666
 646 216 15 -0.8300 30.15909 16.21000 7.44433