LAMMPS data file via write_data, version 29 Oct 2020, timestep = 1560000

10737 atoms
9805 bonds
12753 angles
20158 dihedrals

16 atom types
19 bond types
24 angle types
42 dihedral types

15.744726713394513 49.25527328660532 xlo xhi
15.744726713394513 49.25527328660532 ylo yhi
-0.195824 103.612577 zlo zhi

Masses

1 12.01
2 1.008
3 12.01
4 16
5 14.01
6 1.008
7 16
8 14.01
9 1.008
10 12.01
11 14.01
12 12.01
13 1.008
14 16
15 16
16 1.008

Pair Coeffs

1 0.086 3.39967
2 0.015 2.59964
3 0.086 3.39967
4 0.21 2.95992
5 0.17 3.25
6 0.0157 1.06908
7 0.2104 3.06647
8 0.17 3.25
9 0 0
10 0.086 3.39967
11 0.17 3.25
12 0.086 3.39967
13 0.0157 1.06908
14 0.2104 3.06647
15 0.1521 3.157
16 0.015 2.058

Atoms # full

1 1 2 0.04 17.669689304362045 22.92225361735779 6.423015766200203
2 1 2 0.009 22.64267282945614 19.99005488560939 6.792671152701485
3 1 4 0.285 19.94610003313234 23.102434319130676 5.891011032702988
4 1 4 0.1975 18.9845966414859 22.69656605099954 3.082998099799351
5 1 2 0.04 20.44502803904339 21.016309881922858 7.458034721077951
6 1 1 -0.031 22.55788939254854 20.818416829143246 7.513759451812684
7 1 2 0.04 21.270833608776766 22.00961672387288 2.0432103289760213
8 1 2 0.24 16.58556181545836 23.419466124910496 3.001282272788321
9 1 1 -0.456 21.33740872600935 21.370351062561994 7.919779205091794
10 1 10 0.473 19.119018559570467 23.85374263892626 2.811905619635935
11 1 2 0.247 22.421527712894058 23.30182861086456 5.795467644407652
12 1 1 -0.456 17.108128888502993 23.763242795577423 5.996193394910199
13 1 1 -0.456 21.947059751058692 22.70064639771578 2.5760780734630306
14 1 1 -0.456 23.727298153871946 21.31194057157869 8.086141341421161
15 1 2 0.009 23.345449479670844 21.24360152965966 2.2062800985424222
16 1 1 0.16 21.6049633589065 23.9467736798002 3.1027276608075884
17 1 1 0.16 23.68902252735442 22.322498854059248 9.112553972610044
18 1 4 0.285 19.73707628278318 22.161171320014454 16.654090518608236
19 1 4 0.1975 16.349522452173105 22.763550029646836 14.88507198733289
20 1 6 0.017 19.403957605287047 22.9286842978594 8.453977204829846
21 1 1 0.16 21.33432186908734 22.35604679399899 8.905481495188148
22 1 1 -0.031 23.23667173976693 22.237795848290013 2.7078209424984903
23 1 1 -0.1765 16.988145701319013 17.895996206405922 11.535008383978754
24 1 1 0.101 16.68705275655343 17.888095718731307 12.900519114665087
25 1 1 0.1115 23.42048864142166 18.273567922276925 14.265868409127748
26 1 1 0.101 22.966559718210924 18.55015160919608 16.618540195320577
27 1 2 0.075 17.723303108871185 16.43244851469744 14.818184577456696
28 1 11 -0.575 20.080396381362792 23.020511941520667 9.167547445455611
29 1 10 0.473 19.667624773162547 23.78927465720333 10.227940820385077
30 1 1 -0.456 18.271438134999407 22.37594811740335 12.45997777755253
31 1 1 0.1115 17.238240163798913 23.91425694962761 9.456072693914239
32 1 2 0.04 17.31263786459068 22.753668118624045 12.074896620150964
33 1 1 -0.456 20.297226229025405 22.655065395017953 13.727934523492834
34 1 2 0.209 17.158408681608098 18.695725533404577 13.528891266818869
35 1 1 -0.425 17.932078924045708 17.01285506120465 15.70225654564629
36 1 1 0.16 20.587075390114887 21.281435078535 13.518091697871991
37 1 11 -0.575 17.608254179366156 20.25539802256432 11.663357325762798
38 1 1 0.1115 16.305811087058743 16.90665325911263 10.757653821350747
39 1 1 0.16 18.612435614314094 21.070873190124196 12.08403953179748
40 1 2 0.24 16.50574685791083 16.90871408326975 9.672492498831524
41 1 2 0.009 19.643748124262554 16.643641037729637 10.192457074721014
42 1 1 0.16 17.130208010705584 18.04622731834837 16.171361178815715
43 1 1 0.16 19.172468108762356 16.705962410065144 16.23993397185042
44 1 10 0.473 17.868616231433524 19.04281646225953 11.005018207895311
45 1 4 0.1975 18.77364543900109 18.95324935706275 10.187867890427759
46 1 2 0.075 19.775964604017158 19.427660877612414 12.744358321023595
47 1 1 -0.425 22.49217771982657 22.81662021140286 9.507810388168584
48 1 2 0.075 22.427372213042013 23.65453064391871 10.230565823966222
49 1 4 0.1975 20.208248592695465 19.2433698890695 15.328786929389516
50 1 1 -0.031 19.05939763195899 23.14497879439777 13.258237974253586
51 1 10 0.473 21.3097573124429 19.613199351191025 15.024654124646569
52 1 1 -0.1765 22.57156393004329 18.823862028542393 15.3132270747892
53 1 6 0.017 22.498365671973026 20.857638887010253 13.931233735877287
54 1 6 0.017 16.732663990920287 20.34419053073538 12.228515219586491
55 1 11 -0.575 21.58412059645194 20.699989924031478 14.28937126481559
56 1 2 0.04 20.975898740603192 23.259995717715245 14.329784785415745
57 1 2 0.24 17.205509139524473 22.837311343666233 9.399708612034463
58 1 1 -0.425 19.694547541425873 20.520943748418595 12.722183159235145
59 1 2 0.24 23.060843376785105 18.473034103324824 13.227797337408854
60 1 10 0.473 15.796137679689085 23.64528183743684 14.276218930158324
61 1 1 0.151 22.46678328631959 24.059165281311294 6.585978235527596
62 1 2 0.04 19.097749460890398 15.904432413189916 12.33565343655448
63 1 11 -0.575 15.80514484293361 18.324404787542793 15.656545072659059
64 1 1 -0.031 15.806226012430153 23.548492176752152 5.590945945907
65 1 1 -0.425 20.749087681647083 21.319801319791516 19.64281100152221
66 1 2 0.075 19.736241048507054 21.80274844921575 19.647754534364047
67 1 2 0.247 17.880610197237235 20.5378330733226 20.372245054367895
68 1 1 0.151 17.259220055962082 19.74248487085902 20.878704368957482
69 1 1 0.16 20.994263496964294 20.340590710310817 20.613328614456286
70 1 6 0.017 19.343491638696488 20.754308691445956 21.561640576696867
71 1 11 -0.575 19.947618147035058 19.951345036904698 21.39133578151262
72 1 1 -0.139 17.91315712341066 18.73532678141 21.590756758672672
73 1 10 0.457 19.396735570103875 18.68987273804681 21.470474766237352
74 1 4 0.285 20.0017667473245 17.644850984888876 21.182382990911773
75 1 1 0.151 17.192411578936554 17.63831841137477 22.133267351124402
76 1 2 0.24 22.154356317335974 16.924622048471694 23.09335882251004
77 1 1 -0.456 22.241307371537623 19.790389189544605 20.682765166992606
78 1 11 -0.575 21.41769682923808 22.957873832093327 17.999941894014135
79 1 1 0.16 21.711940909591597 21.797189983475796 18.80985172078316
80 1 2 0.04 22.38585119344558 18.99077862018186 21.395834259829755
81 1 1 0.1115 22.18168942933266 17.44165164545132 24.106425049136508
82 1 1 -0.099 23.283643386829493 18.241662145067927 24.47794365292415
83 1 2 0.009 19.045496146866146 19.039429395680717 18.813148391488696
84 1 1 -0.031 18.784769997775065 18.472259152294672 17.907835242399553
85 1 2 0.247 17.691464767547117 16.904561275618935 22.754768113697235
86 1 1 -0.456 23.030976659685276 21.329350585896805 18.99577939390913
87 1 2 0.009 18.045728500345696 22.58465794075365 24.207817652793132
88 1 1 -0.031 23.31864503237444 20.263004869825117 19.903716641235803
89 1 1 -0.1765 21.181550173459932 17.142406549184315 25.013648350951623
90 1 2 0.04 19.183147408698293 23.310255510470594 22.1110679849576
91 1 1 0.151 23.36445528224152 23.23459865150868 25.00820477161224
92 1 2 0.04 16.80461446257136 19.24811897538682 17.92913020861303
93 1 2 0.04 20.55284065973827 17.228260477606952 17.913342284356048
94 1 2 0.209 22.42682958574044 19.133626327308782 17.41114348543418
95 1 10 0.473 20.060907362844187 16.140099987855343 24.606877898803965
96 1 1 -0.456 19.623365760710488 17.41750600468582 17.37571739090402
97 1 2 0.04 17.943759453363395 19.231691339354736 25.078656747292655
98 1 1 -0.139 23.381182362471538 23.60055824023215 22.162770775160247
99 1 2 0.04 23.87488273250941 21.60412861186158 18.37678965426972
100 1 6 0.017 21.838956196934856 23.79691885632172 18.37780525640324
101 1 1 0.16 17.667145342845888 23.167404557638495 33.82162553792578
102 1 4 0.1975 23.838595800334755 17.3508110811334 19.268071419866374
103 1 1 -0.031 18.105824531398987 23.646376118877928 23.92543533230764
104 1 11 -0.575 23.763280142520216 22.0083855638628 31.94855262319003
105 1 6 0.017 21.66108120805855 23.08027129772694 26.658577344720268
106 1 4 0.285 20.559884548038184 22.07339732416971 31.947247349127714
107 1 6 0.017 20.991759112277258 15.942287511038325 22.82797569546194
108 1 2 0.04 20.148345982749376 17.397715100747735 31.11925941723436
109 1 1 -0.456 17.480578301466245 18.66841605388833 17.386161919112052
110 1 2 0.075 16.289740637120925 23.454642990131706 17.13622465684635
111 1 10 0.457 20.299527545285258 23.065961836218744 17.212086074140778
112 1 4 0.285 16.022589368051378 21.35150404786971 19.003109785280873
113 1 1 -0.1765 24.105078764896547 17.781919558955547 16.92191124822318
114 1 1 -0.425 23.94232850211478 23.86018389444948 33.54955270815084
115 1 1 -0.456 17.725116408952477 18.556463104566255 25.892629360972226
116 1 2 0.247 23.449099370390602 23.164024711620694 26.106286249386056
117 1 1 -0.099 15.900321469730436 22.282099871693152 26.755352085182494
118 1 1 -0.456 18.728852231378514 24.05213926810881 22.788491067063433
119 1 2 0.009 16.318945625093026 17.465228207607492 24.864593489510998
120 1 11 -0.575 22.128842411952473 17.50601692444773 29.055230385638644
121 1 1 0.16 18.310223504795765 18.830538275835707 27.191121629686812
122 1 1 0.16 22.285886119132396 17.505452431215037 30.49340708117864
123 1 10 0.457 17.92453744784465 15.832761725526174 29.80259853369283
124 1 10 0.457 19.85830533677503 22.768034299881155 32.695439578848415
125 1 2 0.04 18.50058498227124 23.812458732545423 27.518030367269088
126 1 1 -0.1765 15.8981619451116 22.661135957360415 29.155046741502723
127 1 1 0.151 22.28228560633908 24.028133648374418 23.007184862375514
128 1 1 -0.139 22.22697975111354 23.80175852135412 24.410663938159406
129 1 1 -0.456 22.60698012206848 17.64382587699139 33.3615298191334
130 1 1 0.101 17.123753928182563 22.038244913058225 29.182219196845075
131 1 2 0.04 22.079663122609634 21.041687092970225 33.8129490825297
132 1 11 -0.575 19.285773171614753 19.82266684356176 27.400791396203992
133 1 6 0.017 21.51024929172159 16.807162424408965 28.726783094152623
134 1 6 0.017 23.209280857407222 22.18110073709038 31.0987168207614
135 1 1 -0.425 17.826812466852587 18.161153825569468 28.26578841748453
136 1 1 -0.031 21.35992092322722 17.514837847915974 32.818749602978244
137 1 2 0.209 17.77626538237832 22.00325700979775 30.08696713358728
138 1 1 0.1115 17.11489046722709 21.629175430348532 26.79809641974819
139 1 11 -0.575 16.77727582326638 16.36104798125581 29.352265238663342
140 1 4 0.1975 23.512755780958592 19.311562806844698 28.68441663398742
141 1 6 0.017 20.261847562568597 19.539088171615017 27.165262212380277
142 1 1 -0.425 23.576083091800193 17.656372770137967 31.080947372404445
143 1 2 0.247 16.080935112064374 16.81258136674004 31.876842423501518
144 1 1 -0.456 21.19275242038385 17.452129035963047 31.416984320381935
145 1 2 0.209 20.53159135614386 17.370199791392142 27.124061791404003
146 1 6 0.017 16.19049586725266 16.77707342024752 30.00010686450434
147 1 1 -0.456 16.360420315970806 16.776974700043585 26.91941594830303
148 1 2 0.075 18.349549045869573 18.36818402019097 29.19866179886029
149 1 2 0.009 20.457407806476194 17.510717136879386 33.44813551856521
150 1 1 -0.1765 17.702580266053634 21.48618361568188 28.019498139594866
151 1 11 -0.575 18.524629670422804 22.475559793531726 32.949458636234326
152 1 6 0.017 18.280032528611237 21.529013397480053 32.705301626228774
153 1 2 0.24 17.561167149587288 21.299937148959508 25.91059947439408
154 1 10 0.473 19.098105073599786 21.00047676858486 28.1026126911951
155 1 1 0.101 21.269860455645983 17.603599665818734 26.35456663084326
156 1 1 -0.1765 22.466443455781032 18.218393581343985 26.83608094841876
157 1 1 0.16 16.943181729944538 17.092584248469255 28.137343083726716
158 1 1 0.16 23.361994079339272 22.637520181430514 33.161789104096734
159 1 1 0.1115 23.439305939405013 18.612825135677117 25.83954699254075
160 1 4 0.1975 19.95227564135444 21.57879921581405 28.775400649513497
161 1 1 -0.031 16.76391530552737 17.54935573467466 25.756830579084703
162 1 10 0.473 22.69698786787006 18.496886266268508 28.25666178419919
163 1 11 -0.575 21.01086935089952 23.839202321946384 26.4895056271392
164 1 1 0.16 23.67897564522967 17.765321510464716 32.480110867308035
165 1 1 -0.139 15.90243781113583 19.645977417608833 20.605328207571777
166 1 6 0.017 17.22503733032369 24.044682967406548 19.828255084989756
167 1 1 -0.139 15.766532424762872 17.605856949472603 22.001358166072293
168 1 1 0.151 16.925038127093572 16.139760811669714 32.216847665524675
169 1 4 0.1975 15.848949930770113 23.87564424044997 21.833470321457973
170 1 10 0.457 23.53057612143918 24.075587423104526 20.749372310545034
171 1 1 -0.139 20.324084464494717 24.108773749912878 33.081174161377966
172 1 1 0.1115 16.796696997810656 20.329584206645556 40.10967372833919
173 1 2 0.24 17.842504741557462 19.911079259211455 39.91440979392603
174 1 1 -0.425 17.767249113292817 17.456869627087304 38.355333402529915
175 1 1 -0.456 19.958221373936833 22.213616157354465 39.798090888437976
176 1 2 0.075 17.15271976563143 17.673863471240896 39.19832164041468
177 1 1 -0.031 20.75820814117289 21.159396393952743 40.2653518702122
178 1 1 0.16 18.94568592168801 22.701778183035987 40.63926484757095
179 1 1 0.16 17.30833555316615 17.65928389271263 37.040709821627225
180 1 1 -0.456 18.193486925495566 17.316537557274337 35.995480670942
181 1 10 0.473 16.97673253254243 21.558876185755437 37.876272163173034
182 1 2 0.04 18.04690716008749 17.618347904105015 34.99530266830883
183 1 4 0.285 21.33525708161638 18.11101997821154 39.218466738066354
184 1 1 0.16 19.00000566897519 16.814919986120394 38.671860926022916
185 1 4 0.1975 17.91179556936599 20.909405974135982 37.48881330254893
186 1 2 0.075 17.58590460578408 21.490846005908363 35.09411249866615
187 1 2 0.009 21.526466862479726 20.585980911790596 39.68872352273268
188 1 10 0.457 20.80772654849274 17.49964111772598 40.12176995506104
189 1 1 -0.425 17.425801708083217 22.54470328481416 35.051150135234785
190 1 1 -0.139 21.55702730471992 16.968707691344594 41.31214390218997
191 1 11 -0.575 19.536300906056727 16.95797580166391 39.98751110132563
192 1 11 -0.575 16.478066367416 22.652019613489255 37.285327758059346
193 1 1 -0.456 19.78525385873741 16.336248063926497 37.630082511744334
194 1 2 0.009 21.4444281722963 22.09736654573102 35.87133327000225
195 1 2 0.04 20.187594737708473 22.566225050550614 38.819967752239094
196 1 1 0.16 16.996052272020208 23.320606099571016 36.15260811331357
197 1 1 0.151 22.97126148985474 16.777340362678927 41.169915274097555
198 1 2 0.247 23.439459367423975 16.713835511898054 40.20989516521291
199 1 1 -0.031 19.33473291283904 16.578652844719866 36.30918558970913
200 1 1 -0.1765 16.224716287341916 21.20069417218227 39.16352253433453
201 1 1 -0.031 22.23996830411435 22.539857368404473 35.29602841694377
202 1 1 -0.456 20.614998676935617 20.688304886445213 41.57119125257729
203 1 4 0.1975 16.25543630240564 18.973555806775735 34.68768932208392
204 1 11 -0.575 16.019115359166385 18.23422958147246 36.857298125785555
205 1 9 0.31 18.55159144633627 19.375866440665675 41.959367196307255
206 1 2 0.04 21.12256226148577 19.77398389171444 41.990353002616885
207 1 1 -0.456 22.858994186319613 23.76787874588175 35.64660992139414
208 1 11 -0.575 21.465244067151026 16.196116412956638 46.06196991553423
209 1 1 -0.456 19.347704486539328 23.764156908936425 47.37280475720542
210 1 6 0.017 19.053202287174727 16.53854188279977 40.79198650490207
211 1 1 -0.099 16.121108772105895 20.033572879555866 41.27060749178028
212 1 1 -0.139 23.294510569466446 22.760343647222467 42.50340484113067
213 1 1 0.16 19.717632523957008 21.250737371221287 42.44541493885965
214 1 7 -0.297 17.915650987125854 18.609597468643404 42.00826454909559
215 1 1 -0.139 23.698567338160313 16.365866351465534 42.334653227989044
216 1 2 0.04 22.721487105857953 17.64326646693424 34.4276457622275
217 1 2 0.04 23.098084548591366 22.966324154944026 39.10486416403774
218 1 1 -0.425 18.90793110944764 22.283328053281814 41.95881730404812
219 1 4 0.285 16.444336120848785 23.754831866328264 41.58392087253942
220 1 2 0.009 20.01410825823108 16.28579642020248 35.50458330181778
221 1 2 0.247 19.529903867578458 24.059331032432173 35.125973289011746
222 1 2 0.247 21.888859070391803 23.397215649195786 40.930392200278256
223 1 12 0.34 16.66798012591572 19.146750711408917 42.32088213082689
224 1 4 -0.255 15.981210130489721 19.026727163828877 43.34186690360152
225 1 6 0.017 23.81169329327788 21.891274965927202 45.80981815508131
226 1 1 -0.139 18.551578242955486 20.81602721157713 45.77592946340572
227 1 1 -0.456 22.51315606519389 21.964289915331616 34.07669533672147
228 1 1 0.151 22.286859346493827 23.52048547516506 41.992183317726095
229 1 10 0.457 19.77636914457917 20.98619204717903 44.86947860779503
230 1 1 0.151 23.075705464533893 16.11634281663608 43.589270476919715
231 1 1 -0.456 23.532373411279863 23.85483339954629 39.43507838409166
232 1 1 0.151 23.740389033375717 22.92164497187362 43.84499751588766
233 1 2 0.075 18.27623632631621 22.833499127313775 42.64909854639487
234 1 6 0.017 16.03828743219093 16.303272798739872 50.849268468181585
235 1 2 0.009 18.618002112342268 23.747331067629556 45.355813990456426
236 1 11 -0.575 18.230313976658834 23.844286106365484 40.14022916403958
237 1 1 0.151 18.602434374985386 20.5705250657159 47.21832836804595
238 1 11 -0.575 23.86590533448083 22.496850661177128 46.555212166081915
239 1 1 -0.139 23.28149020569426 17.55633206592777 50.1764015582175
240 1 2 0.247 19.84792880490663 16.82340368827911 42.68648036434968
241 1 1 -0.139 16.14018492381457 21.313628906929388 45.9199794309001
242 1 4 0.285 16.612572776210484 21.587019640958022 49.996312424956265
243 1 2 0.075 22.467272531196834 20.210413132146996 47.00448586800554
244 1 4 0.285 21.064387290574278 16.91683446943338 49.63683237130606
245 1 6 0.017 18.458520373844834 20.129271663747353 43.53433437716224
246 1 1 -0.456 23.053622975824506 20.836179514185815 50.304335961131656
247 1 1 -0.425 22.833499804454647 20.757020851004025 47.89598401577938
248 1 10 0.457 17.297942157230175 20.753354276033686 49.381696851284325
249 1 11 -0.575 19.381874397681557 20.554384359440462 43.596704047112986
250 1 1 -0.139 21.664215794314128 16.295150765175308 43.68782543238809
251 1 1 -0.139 17.380435406705146 20.731823696948446 47.931947461658694
252 1 6 0.017 22.270520635198 16.78653170164423 45.89469296242717
253 1 2 0.04 20.780081226865928 15.913979492986753 37.805296329366804
254 1 1 0.16 23.55393929641347 21.88594715984136 47.786193383328616
255 1 1 0.16 22.577141926094328 20.164410201576274 49.15138445431989
256 1 2 0.247 19.5779273923324 20.515711639317313 47.81873246043014
257 1 11 -0.575 20.008893367822058 24.0076094225097 49.71664598811692
258 1 1 0.151 16.170771233058 21.05761610510121 47.2959284614266
259 1 11 -0.575 21.698384734612315 19.078349359633478 49.22880750318053
260 1 11 -0.575 18.262897779842877 20.012112614750908 50.06655421882658
261 1 4 0.285 20.71262948553668 21.673832030118113 45.068241824106686
262 1 1 0.151 20.9599249918947 16.80055326585289 42.58463619043856
263 1 1 0.151 17.308704433368085 21.152717275336563 45.16272890597184
264 1 6 0.017 20.769257366491082 19.221376960213206 48.98002203320208
265 1 10 0.457 21.94128224625557 17.75590996354145 49.6127861669851
266 1 4 0.285 20.361825624387812 21.821388699510422 49.93847049882837
267 1 2 0.247 17.249786933163968 21.38066130222601 44.11949805327295
268 1 6 0.017 18.85806048050567 19.449311461099303 49.45769179946988
269 1 10 0.457 20.564529875228075 22.907210833024653 50.36961437209954
270 1 10 0.457 23.507800463903028 23.74463696523564 46.19032330579852
271 1 1 -0.031 23.791104485046233 21.99578033516314 50.12547947636932
272 1 1 0.16 19.014497308953533 23.87012638237403 48.743569502747135
273 1 2 0.209 24.09789789982247 20.354796586275338 34.454968295609405
274 1 2 0.04 20.34638264391094 23.56996412723426 46.97822381072738
275 1 1 -0.139 23.11807601689839 23.820153269582896 44.719647738007126
276 1 1 -0.031 18.353679784272618 23.982923157951387 46.38957064689433
277 1 10 0.457 20.948247299757824 15.7859452683166 44.90237115925515
278 1 1 -0.456 24.024196423537344 22.534084326683857 48.87961794553657
279 1 1 -0.425 17.67517783001199 24.06962032635212 49.12397882962234
280 1 10 0.457 24.11807123543305 21.868537828749552 41.53307866709084
281 1 2 0.009 24.049053368083367 22.59723069025724 51.03805336487542
282 1 2 0.075 17.36989901254488 24.04419995126009 50.20115257442228
283 1 1 -0.425 18.333551573538738 21.18757953087772 52.200896002836274
284 1 10 0.457 17.610933686802404 22.99336984838994 55.157520508289856
285 1 1 0.16 18.355134980740562 21.24501321612496 53.615105476681016
286 1 11 -0.575 18.380847288016444 22.55124970224089 54.131340773862334
287 1 2 0.04 19.79879241934766 22.72191931918301 57.85962678193786
288 1 2 0.04 18.81655828773138 20.116419394679436 55.318506812774466
289 1 1 -0.456 18.711918933913836 20.035716392605114 54.25120384416205
290 1 1 -0.139 21.668902885057857 22.730116593635273 53.996461593195036
291 1 1 0.16 21.837944545649712 23.24785345208552 57.16719687585516
292 1 4 0.285 17.136985093501902 22.214197414399624 55.96958279385087
293 1 6 0.017 21.92687636326358 21.272983981845996 57.21947214775912
294 1 1 -0.031 18.94260274198272 18.817759373528368 53.54321004001619
295 1 10 0.457 21.57765144548951 21.707514063711617 55.171943170874016
296 1 2 0.009 19.259004593039574 17.913131768262723 54.01856375176469
297 1 11 -0.575 21.90092309496203 22.062174366281063 56.52116414268319
298 1 1 -0.456 18.89705206367765 18.878549269814975 52.14823550373255
299 1 4 0.285 21.285294947847152 20.52619105631929 54.97427427714338
300 1 1 -0.031 22.313443335780768 16.60740436654156 55.48573569497347
301 1 2 0.04 21.558409262090446 18.11707219339296 54.17032099867356
302 1 1 -0.456 22.44867412666308 17.740102686827104 54.65603642908251
303 1 7 -0.297 21.684294997144555 18.61298820771034 57.59344423534192
304 1 9 0.31 22.186950613029698 17.85864964973723 57.118584920795584
305 1 12 0.34 17.728840620993246 16.92664732644453 58.32715400871409
306 1 4 0.1975 15.99853405933533 21.80817825841522 61.609421461693536
307 1 2 0.075 18.040628879153935 21.984685882458603 51.65813663170272
308 1 1 0.151 21.21460677768218 22.352739958211593 52.6693005696606
309 1 4 -0.255 18.616103844724876 17.001333205794634 57.49782199205338
310 1 2 0.247 20.867696112452695 21.36778543864333 52.40809585814603
311 1 2 0.24 16.915502724084693 19.473644339548024 58.542727784020265
312 1 2 0.04 16.750811536419437 17.01680296233371 52.91653745690989
313 1 2 0.247 22.51039041499294 18.210155559033673 52.08237935037613
314 1 1 -0.456 20.64260701360257 23.514072368071595 57.87909214391669
315 1 1 -0.139 21.24256767599734 23.260761515890852 51.61535793023112
316 1 1 -0.456 16.13667289701581 16.227182867671672 53.21593596498311
317 1 1 0.16 18.5596331449233 20.012623137407623 51.45791573101544
318 1 2 0.04 19.223379424972993 17.95242649493103 51.70576320305461
319 1 6 0.017 16.45126102814132 21.07312247187758 58.61120057982816
320 1 6 0.017 18.805299558084602 23.23308691545877 53.48543256436167
321 1 1 0.151 23.458534538318812 17.997475654086152 51.484136788096215
322 1 1 -0.031 16.004021644401718 16.085246745097972 54.60497158913721
323 1 7 -0.297 16.58748326053972 16.27963329037904 57.9169248305221
324 1 12 0.34 21.57364979878136 18.135793104636463 58.82862325731545
325 1 2 0.247 23.832421606941036 21.593944986045813 57.799316916619205
326 1 1 0.16 23.639388899677144 18.4692509194993 54.601825956029536
327 1 1 0.151 21.660252415456426 23.90862765890725 63.6744265135467
328 1 1 0.16 16.010426672481323 23.043410775486947 59.12939726745891
329 1 2 0.075 21.398691213500253 18.616321092742183 62.832568471314694
330 1 11 -0.575 19.123652266915318 18.284421103711725 63.97817162046341
331 1 2 0.04 22.77872800485682 20.658346997078297 51.3068881477887
332 1 2 0.009 16.344662340841317 16.948126202134084 55.21579531500366
333 1 4 -0.255 20.597130168794745 18.487390246628486 59.45683525786206
334 1 1 -0.099 22.798283094684013 17.51203375109439 59.46817568490518
335 1 1 0.1115 24.014622595006145 17.6460949167247 58.7895751961678
336 1 1 -0.456 20.349131460295816 21.810032301519858 62.20178299530459
337 1 11 -0.575 16.327466361701703 21.73736461713054 59.356462669305486
338 1 1 0.1115 16.998943058819297 19.021065459485502 59.495121640253736
339 1 2 0.075 23.862005985837722 23.847335407628176 56.83885819421856
340 1 2 0.24 24.087797826008757 18.235220001585265 57.892840343133294
341 1 6 0.017 23.15427279229257 20.198975004560516 61.962433707797885
342 1 1 -0.099 17.551472213627992 17.7676560010407 59.538991345464
343 1 11 -0.575 22.397587424389926 20.69413434157302 61.59849765214159
344 1 4 0.1975 17.81813994898873 16.324766603540084 63.72739395636463
345 1 10 0.473 16.338091714633126 21.214424770041617 60.61787974124984
346 1 2 0.24 21.747879672366548 16.731428705870634 61.185508377354374
347 1 10 0.473 18.211023729005298 17.45244448497014 63.31301530122867
348 1 1 0.1115 22.70875380824328 16.733945832479645 60.65724130696252
349 1 1 0.16 21.12633200689067 20.653411592740802 62.23555174184127
350 1 2 0.04 17.850242467509307 20.654479563645836 64.18604421154642
351 1 1 -0.139 22.76785296037498 23.092065623128054 64.04115803538467
352 1 1 -0.425 20.71866416134866 19.490216688656183 62.81415506963466
353 1 10 0.457 22.585397028203342 21.13545118340531 60.323280611685355
354 1 1 -0.1765 23.793273122180207 15.958425605426346 61.09820402155586
355 1 1 0.151 23.947259281807465 23.319640143389783 63.37502063510313
356 1 11 -0.575 23.416752877961695 21.947759789431313 66.10055894594197
357 1 1 -0.1765 17.702856019092927 17.95937924202034 61.99538750656298
358 1 4 0.285 21.51427937700893 21.651856399962682 65.3300964472106
359 1 2 0.24 18.45942653918848 16.28229028518847 60.76727934851285
360 1 6 0.017 23.106101829697636 21.349240843217725 66.92022409999097
361 1 1 -0.031 19.118684528149814 21.802031668382238 62.89264006221143
362 1 10 0.457 22.5784841864388 22.0597255205143 65.05207397012236
363 1 1 -0.456 18.754765552332422 20.668927501526092 63.67732530988535
364 1 4 0.285 21.707834047861734 21.504384097809325 59.56299478611453
365 1 2 0.04 20.62062264719275 22.702473321043172 61.67080298104362
366 1 1 0.16 19.54359039819788 19.498342921140903 63.55875846041292
367 1 1 0.1115 17.96902849289601 17.270550582298338 60.7701616922169
368 1 2 0.009 18.44658082843914 22.679910683784357 62.79531460159011
369 1 2 0.209 16.63031346828387 19.693722554505502 62.888920253490014
370 1 1 0.101 16.990002722767176 19.151725722544906 61.982423869538074
371 1 1 -0.1765 16.730199735408515 19.716378385085093 60.69499244100432
372 1 6 0.017 19.487190798374307 17.909816698352515 64.88312585476753
373 1 1 -0.425 22.95091375686451 24.024468140279318 57.39075940568368
374 1 11 -0.575 23.826241090357946 19.683139437744575 53.89171414215084
375 1 2 0.247 20.747518315842903 23.77095175802723 64.22758165844375
376 1 6 0.017 23.670085723724803 20.44660044323504 54.579350256875976
377 1 1 -0.456 23.45221985238333 16.20580703118681 56.17441130491982
378 1 2 0.075 17.528376010114084 23.767917888706428 60.4723373379982
379 1 4 0.285 15.794972747532656 19.280462201160688 53.34614144449528
380 1 2 0.009 21.402288783431224 15.998293070541784 55.48352191116077
381 1 1 0.151 22.05517541964056 24.05658735899806 54.10941153045994
382 1 1 -0.425 16.787167447686784 24.039592111823858 59.70953676816219
383 1 1 -0.139 24.026032304163568 21.174359889444613 60.00407333277329
384 1 4 0.1975 18.51228413386452 29.128899628062435 1.5500708187468932
385 1 1 0.101 21.578800186671604 30.343593307111878 4.321370743220538
386 1 6 0.017 20.506398293230976 28.292606078213577 7.13693151013241
387 1 10 0.473 17.55061164210277 28.511782910360907 1.9873991319551332
388 1 2 0.075 17.898690192449784 29.432984675524757 4.915100405950943
389 1 1 -0.425 17.599510057766242 30.400270172855766 4.513984769289096
390 1 1 0.16 16.762301172171878 30.398883245651508 3.3907947338377604
391 1 11 -0.575 16.517011282819784 29.20035517743448 2.6351906156780567
392 1 1 -0.1765 17.2534673311195 27.062094384704068 1.8689493658506224
393 1 2 0.075 17.315983636912947 27.10736350125579 5.45879162558095
394 1 11 -0.575 21.24241388051136 28.683424112189083 6.582836598603197
395 1 1 -0.425 16.881425476541658 26.117239175486798 5.587632262447735
396 1 1 0.16 22.264867414639834 29.189491975552315 7.371420377282339
397 1 10 0.473 21.414567166080726 28.077966319786672 5.305606447954545
398 1 1 -0.1765 21.924933031102675 28.997563833714548 4.2758275719006935
399 1 4 0.1975 20.65926461936979 27.166298669805386 4.983660988018312
400 1 2 0.209 19.33077878770831 26.482530405712534 1.998554137279562
401 1 1 0.101 18.307660720157557 26.172164431447197 2.0539228295225795
402 1 6 0.017 19.731127686013576 31.23792909750292 6.046629452968371
403 1 6 0.017 19.259909548479573 26.22545145417378 6.392592335725721
404 1 11 -0.575 19.036290980826177 25.236846919004673 6.356102221416596
405 1 6 0.017 20.33092932301248 25.49394360223709 2.968981858664056
406 1 2 0.209 21.100653488733958 30.84040094951664 5.1550416917210224
407 1 1 0.16 17.665831508928452 25.038358863360695 5.968623310207678
408 1 1 -0.1765 22.10302131540097 31.274789662698378 3.412511454711018
409 1 2 0.075 22.399555221081414 25.607171776545744 4.169620796922065
410 1 1 0.1115 22.901674006865072 28.51541495607035 3.3664850232880204
411 1 1 -0.425 22.64749385084763 24.66156343995763 3.692576015990669
412 1 1 -0.1765 18.019222969157443 24.82249908490333 2.4596636290099765
413 1 1 -0.456 16.321013482676268 31.583830221397147 2.7881750718696257
414 1 1 -0.139 21.306339145938832 24.687446980285088 7.018205608231063
415 1 11 -0.575 20.3323235273833 24.521378279643073 3.0347488937560323
416 1 1 0.1115 23.058258382060103 30.776231375470022 2.446085427930349
417 1 2 0.24 23.28873254922561 27.454602529310794 3.4365537712364156
418 1 4 0.285 23.82652333664642 27.30915886237039 10.256528293562225
419 1 1 0.151 21.369865951608944 25.72828934125592 8.015071292893301
420 1 2 0.247 23.900587779477576 31.940759348897117 12.65145037828398