LAMMPS data file via write_data, version 29 Oct 2020, timestep = 1000

4500 atoms
2 atom types
3000 bonds
1 bond types
1500 angles
1 angle types

0.02645 35.5328 xlo xhi
0.02645 35.5328 ylo yhi
0.02641 35.4736 zlo zhi

Masses

1 15.9994
2 1.00794

Pair Coeffs # lj/cut/coul/long/omp

1 0.15027 3.15066
2 0 1

Bond Coeffs # harmonic/omp

1 450 0.9572

Angle Coeffs # harmonic/omp

1 55 104.52

Atoms # full

121 41 1 -0.8472 9.45670025596421 6.531918263184899 10.743182896535002 1 1 0
122 41 2 0.4236 9.854489938711332 6.745028572314918 9.89903806825374 1 1 0
123 41 2 0.4236 8.986941878584446 7.327093328560943 10.994691986011777 1 1 0
340 114 1 -0.8472 2.093093165154995 2.5768852474596042 3.18490776435819 0 1 0
341 114 2 0.4236 2.9683704453704123 2.959987019561244 3.126982608064976 0 1 0
342 114 2 0.4236 2.2438517140354874 1.6316624478525348 3.1772076042331068 0 1 0
379 127 1 -0.8472 6.188450469354065 10.44373824212399 1.3450128350987427 0 1 0
380 127 2 0.4236 6.870933834797845 10.581247444884795 0.6880955698663452 0 1 0
381 127 2 0.4236 6.631051043110737 10.579148106656058 2.18286899783154 0 1 0
395 132 2 0.4236 4.637496529347375 10.882796595426779 12.032184233568243 1 1 0
853 285 1 -0.8472 4.862121547524112 3.7951076286758014 2.769309498444049 1 1 0
854 285 2 0.4236 5.582924637722556 3.3470325260031153 3.211922019438614 1 1 0
855 285 2 0.4236 5.068463065570221 4.725739039754684 2.85639666398306 1 1 0
1093 365 1 -0.8472 4.0988569228324545 5.280903440964839 7.198191479252635 1 1 0
1094 365 2 0.4236 3.488787182582721 4.842584269947772 7.791423742793137 1 1 0
1095 365 2 0.4236 4.918473421052971 4.796180112702714 7.295701096465738 1 1 0
3560 1187 2 0.4236 0.6627564438427375 17.061303699026393 3.614718385582434 1 0 0
711 237 2 0.4236 17.70020798611164 9.796025788443611 17.520165215847243 0 0 0
1192 398 1 -0.8472 14.941681647207638 1.530045868152498 1.4498916488362903 1 0 1
1194 398 2 0.4236 15.843214449013203 1.7680326366948738 1.666307299265161 1 0 1
2224 742 1 -0.8472 6.425246081609201 7.442440043036626 6.183237827964999 0 1 0
2225 742 2 0.4236 6.298062543182355 7.876181730843706 7.026994947253996 0 1 0
2226 742 2 0.4236 6.274283719245906 6.514869469295028 6.365058708278463 0 1 0
2502 834 2 0.4236 3.0980747274854306 13.651999002433099 7.26405062999441 0 0 0
2878 960 1 -0.8472 6.312646503243436 8.578924967266422 8.68318850470817 0 1 0
2879 960 2 0.4236 6.75483046809229 9.182005940793172 9.280683727012791 0 1 0
2261 754 2 0.4236 15.060156209370405 13.196570757153046 1.7853968500154436 0 1 0
203 68 2 0.4236 0.6619274677421878 0.9167561464745625 7.279209898620719 1 1 0
3046 1016 1 -0.8472 6.647724462178702 4.468317250853351 6.983163854813928 1 1 0
3047 1016 2 0.4236 7.18983346273138 4.243533618435988 7.739355248992189 1 1 0
3048 1016 2 0.4236 7.020895480302802 3.9622685828413076 6.2614319218819885 1 1 0
1193 398 2 0.4236 14.937687281195771 0.5728851722075178 1.4576444429121218 1 0 1
2321 774 2 0.4236 15.766691353518961 8.076875390566178 1.2662282962398528 0 0 1
4261 1421 1 -0.8472 16.599960222098108 9.631348550252886 12.183857161474295 0 0 0
3663 1221 2 0.4236 15.13837194027863 6.609684280617924 8.441490534139689 1 0 0
3289 1097 1 -0.8472 7.361269355137753 2.6149176312702376 4.461003569380987 1 1 0
4108 1370 1 -0.8472 5.846556115925096 6.214887043426213 2.3987009765431457 1 1 0
4109 1370 2 0.4236 5.293780243007059 6.996278179545899 2.388617493237087 1 1 0
4110 1370 2 0.4236 6.056568117438302 6.0575974226895255 1.4781621457176162 1 1 0
547 183 1 -0.8472 11.57965539394904 0.6291695797414877 2.5855610478069133 0 1 0
1336 446 1 -0.8472 0.04434160348130001 8.27975697531888 0.731013595688982 1 1 1
4264 1422 1 -0.8472 2.5448365009980574 6.683759847306001 5.591438775185361 0 1 0
4265 1422 2 0.4236 3.129202827535575 7.326417700967244 5.189268601861743 0 1 0
4266 1422 2 0.4236 3.1224739126123326 6.129392928744405 6.116082461931973 0 1 0
147 49 2 0.4236 12.935349819251883 9.641654392342238 0.28229751163999617 -1 -1 1
4425 1475 2 0.4236 9.455173290447501 3.787538500290223 0.08701378476885197 1 1 0
3946 1316 1 -0.8472 0.22161072657355543 10.02832535076182 5.918043307011347 0 0 0
2255 752 2 0.4236 8.063845361783414 4.969333421750169 1.4702325111292693 0 1 0
2256 752 2 0.4236 8.913623471341083 4.618580178963799 2.6730403088087047 0 1 0
3290 1097 2 0.4236 7.3668701011700275 1.7224281115484794 4.115076432451224 1 1 0
3995 1332 2 0.4236 1.6507904804089053 12.556790711498701 9.766276841716639 1 1 0
1267 423 1 -0.8472 2.4530526222790643 8.85327209185536 7.64497465774166 0 1 0
1269 423 2 0.4236 3.1698717661949645 8.735657605465075 7.021618894571174 0 1 0
2130 710 2 0.4236 1.0564679154726984 15.651346301954373 5.411585290735922 0 0 0
2982 994 2 0.4236 0.22409894565150987 6.151661653866075 7.17912540419531 1 0 0
3391 1131 1 -0.8472 4.402474242573352 9.160087477396464 5.268406330429458 0 0 0
3392 1131 2 0.4236 4.812789086174795 9.926810083682415 4.868391742709055 0 0 0
3393 1131 2 0.4236 5.118880601998786 8.535069687480526 5.3795314447747025 0 0 0
4475 1492 2 0.4236 3.818778817897375 1.0388156865688676 12.765607656336512 1 0 0
559 187 1 -0.8472 15.517840963074871 17.69409427033136 13.393123172727897 0 0 0
3291 1097 2 0.4236 8.27290408087854 2.9007763713795343 4.402295650631512 1 1 0
1686 562 2 0.4236 8.279737238123351 4.725951497975654 10.281952160117806 0 1 0
4179 1393 2 0.4236 16.90535716641529 14.634304932955434 0.690631003673274 0 0 1
2128 710 1 -0.8472 0.7972246683640933 14.889084391778153 5.929258019467707 0 0 0
1758 586 2 0.4236 9.4596384831945 8.781300474158693 1.8895052361025795 0 0 1
2349 783 2 0.4236 3.2851081125003994 2.2312871852841827 0.524784016246931 0 1 0
1196 399 2 0.4236 13.013418140455002 11.906144369760197 1.6539220434450137 0 1 1
4177 1393 1 -0.8472 17.182623981539912 15.532013242551349 0.5076578495875764 0 0 1
825 275 2 0.4236 11.131068601804081 0.673253357140419 6.368719503964904 1 1 0
10 4 1 -0.8472 12.298912617910998 5.948720183266608 0.39092517101584334 0 1 1
501 167 2 0.4236 16.90837052414834 13.991966899570244 11.363432160025278 -1 1 0
171 57 2 0.4236 6.005454574460459 7.355144001479212 11.000419652408238 0 0 0
1792 598 1 -0.8472 7.693422827328984 10.979095024697717 3.5910623049379358 0 0 0
1793 598 2 0.4236 8.13654758717847 10.409076341552185 4.2195162280607015 0 0 0
838 280 1 -0.8472 10.797052554015513 14.354869790999382 0.6603969868384185 0 0 1
37 13 1 -0.8472 16.813553423774824 5.623419225613452 1.8556997461199967 0 0 0
192 64 2 0.4236 6.2448335689579135 16.537527660906104 7.844159294306106 1 0 0
39 13 2 0.4236 16.612170192169362 5.107528403411051 2.6364263710679174 0 0 0
2468 823 2 0.4236 13.26906537534045 17.460519421467442 8.351016010166308 -1 0 0
88 30 1 -0.8472 10.126256441505536 3.124065749701329 3.6686433977781676 1 1 0
89 30 2 0.4236 10.786429838593532 2.448036186072152 3.8215763030745338 1 1 0
90 30 2 0.4236 10.029218722198236 3.1537846354894996 2.7168378592840146 1 1 0
303 101 2 0.4236 14.770969311102213 1.6498053249527178 8.355712169331115 0 0 0
403 135 1 -0.8472 9.82186862706623 6.342668271385466 5.594050734948865 1 1 0
404 135 2 0.4236 9.801070668808807 5.419195254811095 5.8450437427881745 1 1 0
405 135 2 0.4236 10.190383405808667 6.790145646705544 6.355755071154064 1 1 0
439 147 1 -0.8472 12.251982927713026 2.1994529852451974 6.495974492748321 1 0 0
440 147 2 0.4236 12.937930886812685 2.064672368971161 7.1498428550004185 1 0 0
441 147 2 0.4236 12.700040020017585 2.105798103625004 5.655315325837382 1 0 0
463 155 1 -0.8472 13.870920126462096 2.112983838257873 3.9315953707788354 0 0 0
464 155 2 0.4236 14.127170880550713 1.3154383606444422 4.3947309148504665 0 0 0
2048 683 2 0.4236 5.413803462407844 0.383942975648416 6.504298352817433 -1 0 0
720 240 2 0.4236 12.10974143930729 8.075463459988676 2.817297186537729 0 0 0
44 15 2 0.4236 15.060399363705113 17.115353847313834 11.676517038615769 1 0 0
45 15 2 0.4236 15.11080588402591 16.886107679745766 10.180922372179296 1 0 0
1273 425 1 -0.8472 8.925739079728444 7.724964372756006 3.22545321445505 0 -1 0
1274 425 2 0.4236 9.331372390267774 7.19461958718749 3.9113357324452687 0 -1 0
1275 425 2 0.4236 8.035791165312999 7.884129403264604 3.5399246139621403 0 -1 0
1528 510 1 -0.8472 12.356206225865254 4.599358974891457 8.239396389465806 1 1 0
1529 510 2 0.4236 11.458028621417077 4.75042565918513 7.944964265426356 1 1 0
1530 510 2 0.4236 12.603931758657309 3.7670086703388406 7.83683123321479 1 1 0
4455 1485 2 0.4236 6.9995198512493895 17.14748764944378 15.359016593934571 0 -1 0
1230 410 2 0.4236 8.8713853322575 0.9218086478365507 17.083362244764356 1 0 0
900 300 2 0.4236 1.7559326701365785 9.599926890566977 10.488183848860142 0 1 0
1982 661 2 0.4236 10.26583587207342 17.687754755007553 1.875739106305719 1 1 1
1794 598 2 0.4236 7.1242932267328145 11.53102103369628 4.127442242646884 0 0 0
2254 752 1 -0.8472 8.806977451142586 4.430028490402679 1.7406738144666252 0 1 0
2581 861 1 -0.8472 15.99187211326883 3.7420482213038238 4.495499197522428 0 1 0
2582 861 2 0.4236 16.63424991229945 3.1628365306680246 4.905498948964048 0 1 0
2583 861 2 0.4236 15.202101787452117 3.2069813746781564 4.4167224203665825 0 1 0
3160 1054 1 -0.8472 12.381357629411394 5.747210246978945 3.7830074134174225 0 0 0
3161 1054 2 0.4236 11.749057765048374 5.788604220078363 4.5004449741029555 0 0 0
3162 1054 2 0.4236 12.744400461603606 4.862986024555955 3.8337965235104376 0 0 0
3766 1256 1 -0.8472 9.893229138651241 3.962503571269658 6.850290613927381 -1 0 0
3767 1256 2 0.4236 9.334131933318425 3.600930081305939 7.537974307344511 -1 0 0
3768 1256 2 0.4236 10.44129432884836 3.227469446354652 6.575366137736238 -1 0 0
3771 1257 2 0.4236 13.382542416779211 0.8628154489891594 16.62940812295418 1 1 0
3972 1324 2 0.4236 15.605365653847239 10.526255374209493 17.634797866868 0 0 0
465 155 2 0.4236 13.483274966390015 1.8015077978183078 3.113702585290974 0 0 0
4006 1336 1 -0.8472 10.983696615455209 9.109528790468215 10.197289889776913 0 1 0
4008 1336 2 0.4236 11.73266435871123 9.551738205614171 9.797625294934276 0 1 0
4051 1351 1 -0.8472 10.87431335591986 7.313073043328284 7.937515371899517 0 1 0
4052 1351 2 0.4236 11.788989938361045 7.09445497016095 7.759172277554824 0 1 0
4053 1351 2 0.4236 10.915440205037271 7.965568302103971 8.636652478817549 0 1 0
4066 1356 1 -0.8472 15.450397375316323 6.477495810533851 5.148467526163457 -1 1 0
4067 1356 2 0.4236 15.753200976134922 6.480955235894666 6.056508885983705 -1 1 0
4068 1356 2 0.4236 15.709244632824243 5.619405933753386 4.812442494731266 -1 1 0
4390 1464 1 -0.8472 13.069535016426459 7.780816229058837 5.842228469826772 0 1 0
4391 1464 2 0.4236 12.79000807109849 8.036370488191668 4.963143232712931 0 1 0
4392 1464 2 0.4236 13.609073847181035 7.002059961239041 5.705593266179968 0 1 0
2981 994 2 0.4236 1.5719607378705869 5.555420948359385 6.833203342148998 1 0 0
250 84 1 -0.8472 2.2026890305275266 13.491311849432295 17.66038732434017 1 0 0
4352 1451 2 0.4236 15.14096923068876 16.214844310355375 13.937201141570133 0 0 0
691 231 1 -0.8472 0.3137972900879202 0.5769612636883691 10.103587363225358 1 0 0
1848 616 2 0.4236 4.639115647304892 17.364380668133265 14.624652346469857 0 0 0
3267 1089 2 0.4236 16.650981155795897 0.204443678141957 15.955607462605439 0 -1 0
264 88 2 0.4236 14.873076079917888 8.808126387152027 7.6296505418971945 0 0 0
883 295 1 -0.8472 15.277451954899911 8.420113168665873 3.0025524700897153 0 0 0
884 295 2 0.4236 15.45557795386269 7.7737371203391765 3.6857082613914223 0 0 0
2744 915 2 0.4236 13.640492866266415 13.077278976820244 12.281860140819852 0 0 0
2808 936 2 0.4236 0.9941274280389476 2.193170448719341 0.27971792720871386 1 1 1
3990 1330 2 0.4236 16.18262071233792 4.050848366780505 8.637408045760768 -1 1 0
3932 1311 2 0.4236 16.423624958406425 13.911131154561348 16.08451152141693 0 -1 0
43 15 1 -0.8472 14.558350921274176 16.746147190499318 10.9499719290648 1 0 0
12 4 2 0.4236 11.80757950719258 5.52086218154828 1.0921824734458556 0 1 1
2180 727 2 0.4236 13.393386329335355 13.01250654844543 14.589104043509957 -1 0 0
4351 1451 1 -0.8472 14.69554379890985 15.501139806905893 14.393776169963738 0 0 0
2743 915 1 -0.8472 14.314831920058833 12.728811791833854 12.86501612355707 0 0 0
4230 1410 2 0.4236 3.805107650941785 8.211095575900723 0.8464535246716508 0 1 0
3632 1211 2 0.4236 8.27985229862453 0.4852281686590492 15.131434406653158 1 1 0
2060 687 2 0.4236 17.54212773407391 7.343317641832 12.060781895256547 0 1 0
586 196 1 -0.8472 0.043609445557317786 0.4833497833774265 12.918175588715071 0 -1 0
385 129 1 -0.8472 5.1013275473192845 2.0120236284957826 5.73635300432195 0 0 0
318 106 2 0.4236 11.155241788371626 16.207665997026353 7.247148720525056 1 0 0
3449 1150 2 0.4236 1.6705953496741022 12.076780233191291 4.8718299559579075 0 0 0
598 200 1 -0.8472 5.176029914566648 17.14638252702227 0.3920243241649858 0 0 0
3631 1211 1 -0.8472 7.986179527499822 0.1703530314269709 15.986329608658735 1 1 0
600 200 2 0.4236 6.019451886411762 16.6975051352563 0.33381108103150914 0 0 0
4345 1449 1 -0.8472 17.15870452552883 17.48529154483285 8.698324559448537 0 0 0
1126 376 1 -0.8472 3.7466901599392313 17.639082940865833 4.937380300696847 0 0 0
1127 376 2 0.4236 3.974676268410408 16.71028067689649 4.977146434105972 0 0 0
1128 376 2 0.4236 2.8247413345954393 17.671037393944278 5.192765895595795 0 0 0
1268 423 2 0.4236 1.773497292596701 9.307024720238944 7.146423421785204 0 1 0
1172 391 2 0.4236 16.53828693384505 2.1145978318840153 11.351840536620486 0 0 0
1966 656 1 -0.8472 6.280681744648692 14.12312664504976 8.206634481375595 0 0 0
1967 656 2 0.4236 6.424632001082357 14.24414049183876 7.268087781483215 0 0 0
1968 656 2 0.4236 5.694083904374722 13.368921750901972 8.26417418149442 0 0 0
2089 697 1 -0.8472 8.35003718000619 15.321288756968839 3.5982546487244083 1 0 0
2091 697 2 0.4236 8.745578926358121 14.452890156306538 3.522991148653759 1 0 0
2137 713 1 -0.8472 1.8811846889014594 8.971871516204109 3.1869548121585902 0 1 0
2138 713 2 0.4236 2.2268721140005585 9.675380073246584 3.7363280541561354 0 1 0
2139 713 2 0.4236 2.582446087787636 8.78910106463332 2.5616046792909657 0 1 0
2347 783 1 -0.8472 4.212464997153353 2.1452650556620902 0.7457868494237694 0 1 0
4407 1469 2 0.4236 0.1967254859264304 4.401486931029218 1.6628986334556564 0 0 0
190 64 1 -0.8472 6.560462952047282 17.3845143453628 8.15915740980827 1 0 0
1744 582 1 -0.8472 0.10250130937867886 10.922083696125734 0.304383422968187 0 0 0
2500 834 1 -0.8472 3.640071674556908 13.160958337086061 6.646514094489053 0 0 0
2501 834 2 0.4236 4.00827911303267 12.446257967614526 7.165995409294381 0 0 0
2530 844 1 -0.8472 6.641778222953167 15.27247925697122 5.778078773338091 0 1 0
2531 844 2 0.4236 5.969408074606834 15.069962279425877 5.127586586059237 0 1 0
2532 844 2 0.4236 7.463187432160624 15.25745202579342 5.286859284834014 0 1 0
2920 974 1 -0.8472 4.799483989955547 11.377939345174807 8.43351722151866 0 0 0
2921 974 2 0.4236 5.173848679579811 10.528935959926761 8.198404615238259 0 0 0
2938 980 1 -0.8472 3.848266802606348 11.615718380528886 1.784338672704233 0 0 0
2939 980 2 0.4236 3.2497755204262115 11.654233027531934 1.038309969021121 0 0 0
2123 708 2 0.4236 14.53406177220392 16.21973619193414 2.3240653884223454 -1 0 0
3259 1087 1 -0.8472 5.164425762021931 11.649265273543666 4.374594501237526 0 0 0
3260 1087 2 0.4236 4.550012497947624 11.516292662316564 3.652756997989324 0 0 0
3261 1087 2 0.4236 4.815107660240203 12.402123395249749 4.851474839906437 0 0 0
3448 1150 1 -0.8472 1.7968631279258884 11.48333874884168 4.131481377302119 0 0 0
3450 1150 2 0.4236 1.6791142736993614 12.03550866522718 3.358515614341664 0 0 0
2538 846 2 0.4236 13.474077151899305 15.122372392063296 11.299024975550932 0 0 0
3664 1222 1 -0.8472 2.8444540108767864 14.29183095963848 2.5373700831596318 0 0 0
3665 1222 2 0.4236 3.079793022064487 13.440031506135616 2.169555619177626 0 0 0
3666 1222 2 0.4236 2.6163529783144392 14.8267865453551 1.7770889222326909 0 0 0
3775 1259 1 -0.8472 4.172944526778684 14.908475596388277 4.7363335414342735 0 1 0
3777 1259 2 0.4236 3.7358298257191076 14.60261513395117 3.9415896213626187 0 1 0
3933 1311 2 0.4236 17.36293940999335 14.382222862496752 14.99471264847498 0 -1 0
2052 684 2 0.4236 0.40544867739766577 2.7929810062039517 4.256111936370893 0 0 0
4228 1410 1 -0.8472 4.0176963798685605 8.216492904951838 1.779733409409716 0 1 0
4229 1410 2 0.4236 4.605439987091864 8.964250268255663 1.8876656072621236 0 1 0
499 167 1 -0.8472 17.127969373322454 13.45136729430149 12.122221195241165 -1 1 0
548 183 2 0.4236 11.768304354411471 0.7287456064723719 1.6524316896952265 0 1 0
1829 610 2 0.4236 10.307871984078014 13.183366295265644 3.597797952831883 1 -1 0
38 13 2 0.4236 16.550031415127204 5.0648535542470645 1.1244028006306646 0 0 0
3980 1327 2 0.4236 14.926706704379084 0.49905023901291945 6.432097346048668 0 0 0
2129 710 2 0.4236 1.2811740969138667 14.980542284085056 6.750027934072883 0 0 0
858 286 2 0.4236 8.397407806583399 16.565159181416718 7.179096200827491 1 0 0
2962 988 1 -0.8472 1.8266697024303917 17.147526245265624 9.747648458808179 0 0 0
1155 385 2 0.4236 17.113033930270273 13.022504034698203 7.60817773428293 1 1 0
2922 974 2 0.4236 4.853879003741998 11.407977692417305 9.388699272994323 0 0 0
4262 1421 2 0.4236 17.055121055176095 10.33960207635698 12.63931170681841 0 0 0
3776 1259 2 0.4236 4.071762256771333 14.187965691845925 5.358316802537149 0 1 0
1701 567 2 0.4236 3.2619856751878316 0.306487550790306 16.911198423094703 0 1 0
718 240 1 -0.8472 12.494060548760697 8.764631752213115 3.359125930782416 0 0 0
1886 629 2 0.4236 12.972244262643054 0.0299765002382537 8.401323164993583 1 1 0
2452 818 1 -0.8472 8.406438400938363 9.236744383530684 5.703544648851602 0 0 0
2453 818 2 0.4236 7.691386299939426 8.681305713301942 6.014066262923947 0 0 0
2454 818 2 0.4236 9.119409954666455 8.626719306163459 5.514402096832967 0 0 0
316 106 1 -0.8472 11.86339655789769 16.10783399705967 7.883375967078528 1 0 0
2090 697 2 0.4236 8.958300031038918 15.902444065331819 3.1416268040674815 1 0 0
270 90 2 0.4236 8.919111640350279 10.54323783102555 0.09431331283679392 0 0 1
1081 361 1 -0.8472 9.180397748876944 17.76296101635395 12.674132792514666 0 0 0
262 88 1 -0.8472 15.727730938537045 8.857958263784138 7.201497452757985 0 0 0
263 88 2 0.4236 15.526652161523838 8.877470115866965 6.265858690135361 0 0 0
317 106 2 0.4236 11.481615939378427 15.583113441327125 8.587040919169471 1 0 0
2144 715 2 0.4236 17.642241738214345 15.983276645817174 9.48600732976786 0 0 0
2934 978 2 0.4236 6.8738754535826265 0.6501374959677567 1.4391046793549276 0 1 0
507 169 2 0.4236 16.223411689223294 15.325630797038311 3.7764845977079466 0 0 0
719 240 2 0.4236 12.108308436158293 9.574895654604147 3.0261045088264806 0 0 0
885 295 2 0.4236 14.346375799559421 8.620397945235787 3.098565610479916 0 0 0
952 318 1 -0.8472 8.790186042051964 13.169025848831536 9.166471575990457 0 0 0
953 318 2 0.4236 9.021333938825556 12.629769766104237 8.410160176309082 0 0 0
954 318 2 0.4236 7.90019997430532 13.470152051666094 8.98349478718366 0 0 0
4418 1473 2 0.4236 13.25532261515563 3.803956606842034 17.488171396677593 0 1 0
3948 1316 2 0.4236 0.5769612226391023 10.251221965599674 5.057650529884733 0 0 0
1555 519 1 -0.8472 13.623719336301335 15.263831773117897 1.0820708157423138 0 0 0
1556 519 2 0.4236 12.776558088200247 15.323605359617893 0.6405063140872097 0 0 0
1557 519 2 0.4236 13.581982087581395 14.442055333333377 1.5711284558727918 0 0 0
1820 607 2 0.4236 16.30846388234724 9.937258414560025 4.343915404365582 0 1 0
3389 1130 2 0.4236 8.509307431938973 1.3010371347871275 12.442638811179776 0 -1 0
1819 607 1 -0.8472 16.798050733063402 10.580208350721808 4.856900166922804 0 1 0
1821 607 2 0.4236 16.152422521943258 11.25048891044633 5.08078352509688 0 1 0
1828 610 1 -0.8472 9.734367606016956 13.093215948715708 2.8367466775135166 1 -1 0
1830 610 2 0.4236 9.490659718609516 12.1675990917673 2.828202845470156 1 -1 0
1969 657 1 -0.8472 11.855613047820809 16.437495108100865 4.0766669089391865 0 1 0
1970 657 2 0.4236 11.291126765817507 16.607910725139934 3.322646728681952 0 1 0
1971 657 2 0.4236 11.647980837767022 17.137987158934123 4.695078812206421 0 1 0
618 206 2 0.4236 8.385032920371481 16.299232399257754 1.0171865720276385 1 1 1
2348 783 2 0.4236 4.3607296513788585 2.807506209500129 1.4208344862223787 0 1 0
3769 1257 1 -0.8472 13.70813449194184 0.07929917282798854 17.072493223203043 1 1 0
588 196 2 0.4236 0.226830659367069 0.9410540840760897 12.097703951788777 0 -1 0
617 206 2 0.4236 7.793914506330733 14.988907330845187 0.5422905542972537 1 1 1
2260 754 1 -0.8472 16.013081068608546 13.201865384343686 1.695179589005551 0 1 0
2262 754 2 0.4236 16.26746517533523 12.28317650431661 1.7819722334256138 0 1 0
2446 816 1 -0.8472 12.922062785167734 10.42313384880482 6.486455219912159 1 0 0
2447 816 2 0.4236 13.059491756127175 10.614096740056238 7.4142912108189325 1 0 0
2448 816 2 0.4236 13.040938042146566 9.475942719474938 6.416214188903698 1 0 0
2749 917 1 -0.8472 8.898222436631388 12.010231734506961 6.746216194784728 1 0 0
2750 917 2 0.4236 9.806272977673165 12.03288299556983 6.444281194371675 1 0 0
2929 977 1 -0.8472 11.250574694856121 12.211328595573313 5.545147368565044 0 1 0
2930 977 2 0.4236 11.89979436579774 11.54116139060213 5.758743862517822 0 1 0
2931 977 2 0.4236 11.73528451465508 13.035845492141387 5.583376509000952 0 1 0
3151 1051 1 -0.8472 12.949113737920133 14.385373226191376 5.633924961347842 0 1 0
3152 1051 2 0.4236 12.777965057196353 14.898000189546462 6.42396017351604 0 1 0
3153 1051 2 0.4236 12.946822031302661 15.028748540874664 4.925195774424608 0 1 0
3655 1219 1 -0.8472 14.896791235381126 12.695337860140771 4.673974288134218 1 0 0
3656 1219 2 0.4236 14.226241356323179 13.358929343800643 4.511980573806998 1 0 0
3657 1219 2 0.4236 15.714407074779666 13.189626605170394 4.732423401849439 1 0 0
4174 1392 1 -0.8472 17.197595129648963 10.711434242481786 1.862170674625428 0 1 0
4175 1392 2 0.4236 16.687466497292053 9.958705549849755 2.1611761051115783 0 1 0
4197 1399 2 0.4236 17.374352657160074 11.558743207444108 8.960206994523617 0 0 0
1983 661 2 0.4236 10.480449973381774 16.30570801841395 1.2962698970037152 1 1 1
905 302 2 0.4236 0.5492298202381051 16.98696207390835 17.284641770582006 0 0 0
4406 1469 2 0.4236 1.4662326893749333 3.6442492771470767 1.989763764937459 0 0 0
3486 1162 2 0.4236 15.944271944270687 15.447317968035371 7.834220709506011 1 -1 0
840 280 2 0.4236 10.258876277015505 13.916482464903561 1.3195017061127743 0 0 1
4009 1337 1 -0.8472 11.118456371961138 10.434703913702851 17.481228283761627 1 0 0
3484 1162 1 -0.8472 15.95992899033707 14.585543528830652 7.417888615279148 1 -1 0
848 283 2 0.4236 16.800248404142117 0.5054655260569803 7.942669397370992 0 1 0
3058 1020 1 -0.8472 17.688064695253054 1.7717600165510723 1.5169263228612457 0 0 0
1463 488 2 0.4236 0.7131507236534239 6.762319865398423 4.516519164447553 0 1 0
3661 1221 1 -0.8472 15.819041195318208 6.091842295791961 8.01165174516047 1 0 0
396 132 2 0.4236 4.934546558779701 12.29702256228347 11.580939272668711 1 1 0
1684 562 1 -0.8472 7.985729274942419 3.990104149069806 9.744997562835179 0 1 0
1685 562 2 0.4236 7.146868657541059 3.733568788468295 10.128059007348229 0 1 0
2880 960 2 0.4236 6.021145241917974 7.858340718078409 9.241774985387627 0 1 0
3328 1110 1 -0.8472 4.61532240873758 6.739730757059446 10.033213738740352 0 1 0
3329 1110 2 0.4236 4.2806731291967965 5.901405627673296 10.351734485358588 0 1 0
3330 1110 2 0.4236 4.430574994191031 6.73066316190628 9.094054923660643 0 1 0
3034 1012 1 -0.8472 9.336975840135265 2.1052832299316067 11.109299048104758 0 1 0
387 129 2 0.4236 5.860545364477089 2.254249427564812 5.206117772077282 0 0 0
406 136 1 -0.8472 4.697128484540594 4.651420309347127 11.928814349044977 0 1 0
2185 729 1 -0.8472 11.291431944829956 7.843573672013823 15.560992724493062 0 1 0
2980 994 1 -0.8472 0.6750696957938342 5.315012288772373 7.065635426672598 1 0 0
1700 567 2 0.4236 3.479588439208208 1.6390439239142234 16.226480191811117 0 1 0
1083 361 2 0.4236 8.705106924932561 17.025155402098047 13.056200463464675 0 0 0
4234 1412 1 -0.8472 2.9468873574939614 4.906459151484754 15.5215959587324 1 1 0
276 92 2 0.4236 3.064989493335516 9.68842591748052 12.403028486937473 1 1 0
274 92 1 -0.8472 3.3858581030345256 10.091364736463373 13.209822850541004 1 1 0
275 92 2 0.4236 2.967316065306099 9.59148486535069 13.910661921202133 1 1 0
2370 790 2 0.4236 6.973286588627435 17.37544064927942 4.623507917065199 0 1 0
2222 741 2 0.4236 12.538761805024611 2.1820934160177194 0.23069755178482942 0 0 1
298 100 1 -0.8472 5.645317364776783 2.6646275601324514 10.402840471874818 1 0 0
299 100 2 0.4236 5.119145029916048 2.409262909542442 9.645104104832996 1 0 0
300 100 2 0.4236 5.422232650811833 2.0229457073002557 11.07716322617904 1 0 0
388 130 1 -0.8472 2.1903759865709627 4.6886603513210705 9.263047660668722 1 1 0
389 130 2 0.4236 1.6167475638246342 5.138972032667151 8.643044241695623 1 1 0
390 130 2 0.4236 1.7680054190863717 4.811088552409437 10.113251665158154 1 1 0
394 132 1 -0.8472 5.208561965742274 11.38869445743697 11.454095157986865 1 1 0
950 317 2 0.4236 7.029506706913464 11.03650653341729 11.016501365485409 1 0 0
951 317 2 0.4236 8.035518132626487 11.488491745615361 9.979415530382994 1 0 0
1063 355 1 -0.8472 0.6039603209666359 4.155286728706566 11.347125951279063 0 0 0
4413 1471 2 0.4236 0.0336520256533841 13.19283010865335 5.820981688707126 1 0 0
1065 355 2 0.4236 0.4908365508821144 4.960619217298095 11.851977660165575 0 0 0
1144 382 1 -0.8472 5.405261123925325 4.975667888595267 17.025617853800114 0 1 0
1145 382 2 0.4236 5.509321071171455 4.055962792016228 16.78159564581799 0 1 0
1146 382 2 0.4236 6.268401109802155 5.3622512655041765 16.878051431071018 0 1 0
408 136 2 0.4236 5.092772906668863 4.003620896796286 11.34567097812295 0 1 0
1225 409 1 -0.8472 1.4518277708952803 6.189694387937104 13.17833819993703 1 0 0
1226 409 2 0.4236 0.56155905861266 6.320103189864891 13.504909381401035 1 0 0
1227 409 2 0.4236 1.9194569416773606 5.787521578687966 13.910331315105042 1 0 0
1699 567 1 -0.8472 3.220036914783454 1.2508006084910375 17.062026411712896 0 1 0
4236 1412 2 0.4236 3.8040456059453347 4.979393443020234 15.941351713437438 1 1 0
3979 1327 1 -0.8472 14.215591263122406 0.2815680705481778 5.829395079261279 0 0 0
1960 654 1 -0.8472 3.168945073534473 2.0989967420913453 9.375031107170484 0 0 0
1961 654 2 0.4236 2.575448927614182 1.4601966631264653 9.76990978424461 0 0 0
2989 997 1 -0.8472 8.73555412504475 9.166019611308744 12.353350619205303 1 -1 0
2990 997 2 0.4236 7.929131385876964 8.69164722617727 12.151146917958561 1 -1 0
2991 997 2 0.4236 8.808827246746134 9.821427110334817 11.659589011854482 1 -1 0
3035 1012 2 0.4236 8.876894501168493 2.5350931644708257 10.388312778335871 0 1 0
3244 1082 1 -0.8472 2.363256441373536 8.449025351882256 11.554256398458683 1 0 0
3245 1082 2 0.4236 1.9927681102877193 7.807107335318108 12.159993626094197 1 0 0
3246 1082 2 0.4236 2.78795432599379 7.922617569612042 10.876937423087037 1 0 0
4213 1405 1 -0.8472 6.338491871682587 2.3993194177273995 16.42034145096384 1 1 0
2940 980 2 0.4236 4.689530179077594 11.362580537995537 1.4042924982108216 0 0 0
3608 1203 2 0.4236 7.994685056198953 6.755290865388028 16.437259399556407 1 0 0
3667 1223 1 -0.8472 3.9946905370547494 2.4450494122418003 14.570829927538087 0 -1 0
3668 1223 2 0.4236 4.722036799810516 2.504299717539989 13.95140338597532 0 -1 0
3669 1223 2 0.4236 3.5341243615074873 3.279306774674665 14.480673124670682 0 -1 0
3949 1317 1 -0.8472 7.7809286300305605 8.295429160131352 15.128412136089663 0 1 0
3951 1317 2 0.4236 8.040241227385884 8.469100443053476 14.223520970156125 0 1 0
3931 1311 1 -0.8472 16.709140179576593 13.711773649940481 15.1928982387475 0 -1 0
2806 936 1 -0.8472 1.2953319931382783 1.305013498331088 0.4712603968063209 1 1 1
3266 1089 2 0.4236 15.202447024118154 0.6260477102585551 16.08168336264978 0 -1 0
3265 1089 1 -0.8472 16.03500070297683 0.8863101360102947 15.687536077266085 0 -1 0
2904 968 2 0.4236 12.325384312518356 11.231485018482164 10.449561076417433 1 0 0
3607 1203 1 -0.8472 8.044225507278764 5.814781140688786 16.608212869208565 1 0 0
1962 654 2 0.4236 2.681961271294581 2.922839984470259 9.394106776251794 0 0 0
3818 1273 2 0.4236 12.986684420013102 14.95423006305759 17.125482172197607 0 0 0
3036 1012 2 0.4236 9.387238758442184 1.1858836475831271 10.847745182115618 0 1 0
819 273 2 0.4236 17.25575171782919 10.781975679464747 0.12135791539577533 0 0 0
407 136 2 0.4236 4.950140211031113 4.369295456924244 12.80780440645495 0 1 0
4235 1412 2 0.4236 2.321454050961918 4.941897923703805 16.245345842650067 1 1 0
2903 968 2 0.4236 13.286278330224343 11.786441746641366 9.419705170295881 1 0 0
4214 1405 2 0.4236 7.168190193742687 1.92227464860731 16.43668284642962 1 1 0
169 57 1 -0.8472 6.666165576571514 7.441993271446789 11.68755227315368 0 0 0
1197 399 2 0.4236 13.05337035189434 12.430518217967345 3.073546031742329 0 1 1
3331 1111 1 -0.8472 8.724213655350114 1.3796871381706397 7.533524292672856 1 0 0
3332 1111 2 0.4236 9.400214950373899 0.8481942373559678 7.113081593788189 1 0 0
301 101 1 -0.8472 13.928623101834676 1.7406785882048994 8.801167952113165 0 0 0
4055 1352 2 0.4236 11.89871276095825 12.916600203717675 16.9316397835165 1 -1 0
2187 729 2 0.4236 11.087088686174658 8.181015852288422 16.433122091503176 0 1 0
847 283 1 -0.8472 16.248496836000896 1.1482597466146736 7.497000001851249 0 1 0
2537 846 2 0.4236 12.31230467420063 14.389073183392709 10.663057974063689 0 0 0
4054 1352 1 -0.8472 11.450629572598222 13.388551831707476 17.63357810911011 1 -1 0
170 57 2 0.4236 6.465880255826646 6.737226736160714 12.303525024130328 0 0 0
3333 1111 2 0.4236 8.546753218818854 0.9318542591844642 8.36067955552638 1 0 0
3388 1130 1 -0.8472 7.968496196838946 1.0211953970199301 13.181182137252048 0 -1 0
3136 1046 1 -0.8472 8.62248792666252 5.120394414854219 13.168626831010934 -1 0 0
3138 1046 2 0.4236 8.909286211358983 5.632488503726426 12.412492080025151 -1 0 0