LAMMPS data file via write_data, version 29 Oct 2020, timestep = 1560000

8493 atoms
16 atom types
8390 bonds
19 bond types
12079 angles
24 angle types
20158 dihedrals
42 dihedral types

15.744726713394513 49.25527328660532 xlo xhi
15.744726713394513 49.25527328660532 ylo yhi
-30.195000 98.200000 zlo zhi

Masses

1 12.01
2 1.008
3 12.01
4 16
5 14.01
6 1.008
7 16
8 14.01
9 1.008
10 12.01
11 14.01
12 12.01
13 1.008
14 16
15 15.9994000 # OW (oxygen in water)
16  1.0080000 # HW (hydrogen in water)

Pair Coeffs # lj/cut/coul/long/omp

1 0.086 3.39967
2 0.015 2.59964
3 0.086 3.39967
4 0.21 2.95992
5 0.17 3.25
6 0.0157 1.06908
7 0.2104 3.06647
8 0.17 3.25
9 0 0
10 0.086 3.39967
11 0.17 3.25
12 0.086 3.39967
13 0.0157 1.06908
14 0.2104 3.06647
15 0.1020000 3.1880000 # OW
16 0.0000000 0.0000000 # HW

Atoms # full

 1 1 2 0.009 22.643 19.990 6.793
 2 1 4 0.285 29.932 23.811 10.355
 3 1 1 -0.456 18.271 22.376 12.460
 4 1 1 0.16 18.612 21.071 12.084
 5 1 1 -0.425 19.695 20.521 12.722
 6 1 2 0.04 17.313 22.754 12.075
 7 1 11 -0.575 17.608 20.255 11.663
 8 1 2 0.075 19.776 19.428 12.744
 9 1 6 0.017 16.733 20.344 12.229
 10 1 11 -0.575 15.805 18.324 15.657
 11 1 6 0.017 48.712 18.745 16.315
 12 1 1 -0.456 23.727 21.312 8.086
 13 1 1 -0.031 22.558 20.818 7.514
 14 1 1 -0.456 21.337 21.370 7.920
 15 1 1 0.16 23.689 22.322 9.113
 16 1 1 -0.425 22.492 22.817 9.508
 17 1 1 0.16 21.334 22.356 8.905
 18 1 2 0.04 20.445 21.016 7.458
 19 1 11 -0.575 20.080 23.021 9.168
 20 1 6 0.017 19.404 22.929 8.454
 21 1 1 -0.031 15.806 23.548 5.591
 22 1 2 0.04 47.484 24.524 5.213
 23 1 2 0.009 48.888 22.574 5.681
 24 1 2 0.24 17.206 22.837 9.400
 25 1 12 0.34 48.437 23.824 8.596
 26 1 4 -0.255 48.189 22.669 8.862
 27 1 7 -0.297 47.545 24.656 7.987
 28 1 1 0.1115 44.106 17.534 14.995
 29 1 2 0.24 44.413 17.855 13.976
 30 1 4 -0.255 45.230 49.047 13.242
 31 1 1 0.1115 48.472 16.141 12.609
 32 1 1 -0.099 48.824 16.034 11.278
 33 1 1 0.1115 16.306 16.907 10.758
 34 1 1 -0.1765 49.137 17.124 13.443
 35 1 1 0.101 16.687 17.888 12.901
 36 1 1 -0.1765 16.988 17.896 11.535
 37 1 2 0.24 47.740 48.994 13.032
 38 1 2 0.24 16.506 16.909 9.672
 39 1 2 0.209 17.158 18.696 13.529
 40 1 10 0.473 48.547 17.608 14.717
 41 1 10 0.473 17.869 19.043 11.005
 42 1 12 0.34 48.307 48.424 10.428
 43 1 4 -0.255 47.515 47.568 10.866
 44 1 4 0.1975 47.318 17.795 14.823
 45 1 4 0.1975 18.774 18.953 10.188
 46 1 7 -0.297 49.131 48.107 9.466
 47 1 9 0.31 16.550 47.908 9.946
 48 1 1 0.1115 46.392 22.421 11.269
 49 1 2 0.24 45.628 22.069 10.574
 50 1 7 -0.297 47.334 20.095 9.895
 51 1 9 0.31 46.882 19.272 9.501
 52 1 2 0.04 23.713 45.182 13.541
 53 1 1 -0.456 29.334 21.652 12.744
 54 1 1 -0.031 28.403 20.723 12.189
 55 1 2 0.04 30.313 21.721 12.332
 56 1 2 0.009 28.707 20.093 11.385
 57 1 1 -0.031 19.059 23.145 13.258
 58 1 1 -0.456 20.297 22.655 13.728
 59 1 1 0.16 20.587 21.281 13.518
 60 1 2 0.009 18.789 24.238 13.288
 61 1 2 0.04 20.976 23.260 14.330
 62 1 11 -0.575 21.584 20.700 14.289
 63 1 6 0.017 22.498 20.858 13.931
 64 1 1 -0.456 32.278 25.648 10.066
 65 1 2 0.04 31.542 25.780 9.228
 66 1 2 0.04 24.681 20.879 7.791
 67 1 11 -0.575 24.870 22.771 9.712
 68 1 11 -0.575 29.896 19.095 4.227
 69 1 6 0.017 29.524 18.198 4.017
 70 1 1 -0.456 27.763 22.773 8.020
 71 1 1 -0.031 28.019 24.170 7.881
 72 1 1 -0.456 29.340 24.601 7.638
 73 1 1 0.16 28.781 21.841 7.799
 74 1 1 -0.425 30.052 22.254 7.528
 75 1 1 0.16 30.310 23.635 7.418
 76 1 2 0.04 26.765 22.376 8.177
 77 1 2 0.009 27.205 24.959 7.969
 78 1 2 0.04 29.540 25.691 7.462
 79 1 11 -0.575 31.598 24.055 6.906
 80 1 11 -0.575 28.444 20.520 7.694
 81 1 2 0.075 30.897 21.618 7.278
 82 1 6 0.017 29.043 19.955 7.115
 83 1 6 0.017 32.128 24.558 7.578
 84 1 2 0.209 27.552 17.818 10.212
 85 1 10 0.473 27.513 19.759 8.410
 86 1 4 0.1975 26.893 20.249 9.360
 87 1 1 0.1115 29.725 24.352 4.532
 88 1 1 -0.099 28.588 23.907 3.962
 89 1 1 0.1115 28.411 22.526 3.745
 90 1 1 -0.1765 30.875 23.537 4.670
 91 1 1 0.101 30.735 22.181 4.350
 92 1 1 -0.1765 29.474 21.612 3.918
 93 1 2 0.24 29.978 25.432 4.734
 94 1 2 0.24 27.406 22.205 3.473
 95 1 2 0.209 31.631 21.578 4.507
 96 1 10 0.473 31.995 24.059 5.547
 97 1 10 0.473 29.113 20.154 3.852
 98 1 12 0.34 27.503 24.872 3.659
 99 1 4 0.1975 33.032 24.520 5.123
 100 1 4 0.1975 28.053 19.795 3.306
 101 1 7 -0.297 26.788 24.582 2.549
 102 1 9 0.31 26.087 25.237 2.392
 103 1 10 0.473 21.310 19.613 15.025
 104 1 4 0.1975 20.208 19.243 15.329
 105 1 1 0.151 25.702 24.566 12.742
 106 1 1 -0.139 25.998 23.720 11.617
 107 1 1 0.151 27.290 23.774 11.072
 108 1 1 -0.139 26.641 25.452 13.301
 109 1 1 0.151 27.875 25.539 12.634
 110 1 1 -0.139 28.202 24.754 11.558
 111 1 2 0.247 24.674 24.548 13.186
 112 1 2 0.247 27.681 22.975 10.400
 113 1 4 0.285 27.185 26.903 14.995
 114 1 10 0.457 29.615 24.704 11.106
 115 1 10 0.457 25.031 22.719 11.099
 116 1 4 0.285 24.326 22.150 11.901
 117 1 1 -0.456 18.260 47.639 23.332
 118 1 1 -0.031 17.419 46.788 22.608
 119 1 1 -0.456 17.409 46.802 21.212
 120 1 1 0.16 19.267 48.337 22.673
 121 1 2 0.04 18.151 47.537 24.410
 122 1 2 0.009 16.589 46.365 23.101
 123 1 2 0.04 16.546 46.317 20.630
 124 1 1 0.16 44.663 48.134 20.691
 125 1 1 -0.425 45.430 49.170 21.200
 126 1 1 0.16 46.369 48.946 22.181
 127 1 11 -0.575 43.876 48.373 19.472
 128 1 2 0.075 45.456 16.621 20.711
 129 1 6 0.017 43.968 47.741 18.692
 130 1 11 -0.575 19.286 19.823 27.401
 131 1 6 0.017 20.262 19.539 27.165
 132 1 2 0.04 16.805 19.248 17.929
 133 1 1 -0.456 23.031 21.329 18.996
 134 1 1 -0.031 23.319 20.263 19.904
 135 1 1 -0.456 22.241 19.790 20.683
 136 1 1 0.16 21.712 21.797 18.810
 137 1 1 -0.425 20.749 21.320 19.643
 138 1 1 0.16 20.994 20.341 20.613
 139 1 2 0.04 23.875 21.604 18.377
 140 1 2 0.009 24.331 19.831 19.860
 141 1 2 0.04 22.386 18.991 21.396
 142 1 11 -0.575 19.948 19.951 21.391
 143 1 11 -0.575 21.418 22.958 18.000
 144 1 2 0.075 19.736 21.803 19.648
 145 1 6 0.017 21.839 23.797 18.378
 146 1 6 0.017 19.343 20.754 21.562
 147 1 11 -0.575 21.011 23.839 26.490
 148 1 6 0.017 21.661 23.080 26.659
 149 1 1 -0.031 28.551 21.437 28.037
 150 1 1 -0.456 27.654 21.423 27.031
 151 1 1 -0.425 25.894 22.348 28.559
 152 1 1 0.16 26.320 21.817 27.282
 153 1 2 0.04 27.893 20.810 26.132
 154 1 11 -0.575 25.299 21.746 26.323
 155 1 6 0.017 24.407 21.954 26.708
 156 1 2 0.24 17.561 21.300 25.911
 157 1 10 0.473 19.098 21.000 28.103
 158 1 4 0.1975 19.952 21.579 28.775
 159 1 9 0.31 48.336 21.609 23.847
 160 1 1 -0.099 44.301 16.221 15.344
 161 1 1 0.1115 44.111 49.247 16.662
 162 1 2 0.24 44.487 48.275 16.919
 163 1 12 0.34 44.797 48.767 14.363
 164 1 7 -0.297 44.444 47.470 14.632
 165 1 9 0.31 45.344 47.049 14.683
 166 1 1 -0.099 47.399 21.492 11.727
 167 1 1 0.1115 48.440 21.933 12.581
 168 1 2 0.24 49.189 21.255 12.909
 169 1 12 0.34 47.426 20.102 11.227
 170 1 4 -0.255 47.556 19.125 11.889
 171 1 1 -0.139 24.442 22.720 24.220
 172 1 1 0.151 23.364 23.235 25.008
 173 1 1 -0.139 22.227 23.802 24.411
 174 1 2 0.247 23.449 23.164 26.106
 175 1 10 0.457 25.590 22.128 25.021
 176 1 4 0.285 26.721 22.114 24.514
 177 1 10 0.457 20.300 23.066 17.212
 178 1 4 0.285 19.737 22.161 16.654
 179 1 1 0.151 17.259 19.742 20.879
 180 1 1 -0.139 15.902 19.646 20.605
 181 1 1 0.151 48.596 18.598 21.238
 182 1 1 -0.139 17.913 18.735 21.591
 183 1 1 0.151 17.192 17.638 22.133
 184 1 1 -0.139 15.767 17.606 22.001
 185 1 2 0.247 17.881 20.538 20.372
 186 1 2 0.247 17.691 16.905 22.755
 187 1 10 0.457 19.397 18.690 21.470
 188 1 4 0.285 20.002 17.645 21.182
 189 1 1 -0.456 30.948 23.765 23.759
 190 1 1 -0.031 31.590 23.138 22.692
 191 1 1 -0.456 30.787 22.513 21.800
 192 1 1 0.16 29.551 23.854 23.699
 193 1 1 0.16 29.413 22.460 21.912
 194 1 2 0.04 31.535 24.226 24.506
 195 1 2 0.009 32.673 23.122 22.603
 196 1 2 0.04 31.320 21.874 21.088
 197 1 11 -0.575 28.713 21.705 20.966
 198 1 1 -0.031 23.747 46.824 14.887
 199 1 1 -0.456 23.629 47.223 16.246
 200 1 2 0.009 23.886 47.571 14.053
 201 1 2 0.04 23.777 48.230 16.525
 202 1 1 -0.456 27.072 20.653 12.713
 203 1 1 0.16 29.008 22.380 13.851
 204 1 1 -0.425 27.664 22.256 14.335
 205 1 1 0.16 26.718 21.398 13.746
 206 1 2 0.04 26.308 19.961 12.263
 207 1 11 -0.575 25.430 21.297 14.445
 208 1 11 -0.575 29.878 23.392 14.360
 209 1 2 0.075 27.397 22.852 15.210
 210 1 6 0.017 29.743 24.283 13.920
 211 1 6 0.017 24.725 21.621 13.752
 212 1 1 -0.456 27.642 16.146 19.326
 213 1 1 -0.031 28.504 15.754 20.345
 214 1 1 -0.456 28.501 16.533 21.524
 215 1 1 0.16 26.749 17.261 19.562
 216 1 1 -0.425 26.728 18.060 20.734
 217 1 1 0.16 27.706 17.670 21.712
 218 1 2 0.04 27.586 49.009 18.483
 219 1 2 0.009 29.209 48.469 20.179
 220 1 2 0.04 29.268 16.234 22.243
 221 1 11 -0.575 27.918 18.455 22.919
 222 1 11 -0.575 25.941 17.572 18.454
 223 1 2 0.075 26.169 18.979 20.754
 224 1 6 0.017 26.472 17.691 17.568
 225 1 6 0.017 27.517 18.106 23.745
 226 1 1 -0.425 25.103 24.903 17.956
 227 1 11 -0.575 24.841 24.170 20.253
 228 1 2 0.075 24.169 24.441 17.669
 229 1 6 0.017 25.503 23.615 20.731
 230 1 2 0.075 24.918 22.853 28.669
 231 1 10 0.473 30.304 23.472 15.709
 232 1 1 0.1115 24.936 17.247 15.851
 233 1 1 -0.099 24.590 17.554 14.551
 234 1 1 0.1115 23.420 18.274 14.266
 235 1 1 -0.1765 24.105 17.782 16.922
 236 1 1 0.101 22.967 18.550 16.619
 237 1 1 -0.1765 22.572 18.824 15.313
 238 1 2 0.24 25.830 16.694 16.115
 239 1 2 0.24 23.061 18.473 13.228
 240 1 2 0.209 22.427 19.134 17.411
 241 1 10 0.473 24.581 17.659 18.340
 242 1 12 0.34 25.411 16.867 13.456
 243 1 4 -0.255 25.074 17.004 12.309
 244 1 4 0.1975 23.839 17.351 19.268
 245 1 7 -0.297 25.978 49.241 13.912
 246 1 9 0.31 26.767 49.120 13.389
 247 1 2 0.247 25.857 48.987 20.955
 248 1 1 0.151 24.414 22.848 22.824
 249 1 1 -0.139 23.381 23.601 22.163
 250 1 1 0.151 22.282 24.028 23.007
 251 1 2 0.247 25.374 22.734 22.293
 252 1 2 0.247 21.400 24.534 22.623
 253 1 10 0.457 23.531 24.076 20.749
 254 1 4 0.285 22.558 24.631 20.217
 255 1 1 0.151 28.245 20.159 18.464
 256 1 1 -0.139 27.988 19.380 17.310
 257 1 1 0.151 27.076 19.948 16.403
 258 1 1 -0.139 27.548 21.355 18.802
 259 1 1 0.151 26.520 21.773 17.924
 260 1 1 -0.139 26.335 21.141 16.724
 261 1 2 0.247 29.062 19.877 19.154
 262 1 2 0.247 26.932 19.473 15.431
 263 1 2 0.247 25.834 22.646 18.099
 264 1 10 0.457 28.143 22.296 19.859
 265 1 10 0.457 25.192 21.545 15.760
 266 1 4 0.285 28.171 23.530 19.688
 267 1 4 0.285 24.247 22.199 16.087
 268 1 4 0.285 29.705 23.612 26.406
 269 1 1 -0.456 17.418 24.559 33.725
 270 1 1 0.16 17.667 23.167 33.822
 271 1 2 0.04 17.585 25.130 32.834
 272 1 11 -0.575 18.525 22.476 32.949
 273 1 6 0.017 18.280 21.529 32.705
 274 1 11 -0.575 20.146 49.156 23.311
 275 1 6 0.017 20.992 15.942 22.828
 276 1 11 -0.575 47.258 16.449 22.435
 277 1 6 0.017 46.770 17.385 22.489
 278 1 1 0.16 17.308 17.659 37.041
 279 1 1 -0.425 17.767 17.457 38.355
 280 1 11 -0.575 16.019 18.234 36.857
 281 1 2 0.075 17.153 17.674 39.198
 282 1 6 0.017 49.022 18.375 37.722
 283 1 1 -0.456 26.392 16.765 28.743
 284 1 1 -0.031 26.469 17.608 27.632
 285 1 1 -0.456 26.165 17.159 26.349
 286 1 1 0.16 25.946 49.040 28.586
 287 1 1 -0.425 25.636 48.544 27.291
 288 1 1 0.16 25.752 15.855 26.193
 289 1 2 0.04 26.726 16.988 29.721
 290 1 2 0.009 26.895 18.619 27.828
 291 1 2 0.04 26.250 17.825 25.464
 292 1 11 -0.575 25.154 48.950 24.976
 293 1 6 0.017 25.141 48.515 30.455
 294 1 6 0.017 46.402 19.891 39.747
 295 1 1 -0.456 17.725 18.556 25.893
 296 1 1 -0.031 16.764 17.549 25.757
 297 1 1 -0.456 16.360 16.777 26.919
 298 1 1 0.16 18.310 18.831 27.191
 299 1 1 -0.425 17.827 18.161 28.266
 300 1 1 0.16 16.943 17.093 28.137
 301 1 2 0.04 17.944 19.232 25.079
 302 1 2 0.009 16.319 17.465 24.865
 303 1 2 0.04 49.080 16.041 26.829
 304 1 11 -0.575 16.777 16.361 29.352
 305 1 2 0.075 18.350 18.368 29.199
 306 1 6 0.017 16.190 16.777 30.000
 307 1 1 -0.456 22.513 21.964 34.077
 308 1 1 -0.031 22.240 22.540 35.296
 309 1 1 -0.456 22.859 23.768 35.647
 310 1 1 0.16 23.362 22.638 33.162
 311 1 1 -0.425 23.942 23.860 33.550
 312 1 1 0.16 23.634 24.405 34.741
 313 1 2 0.04 22.080 21.042 33.813
 314 1 2 0.009 21.444 22.097 35.871
 315 1 2 0.04 22.615 24.182 36.636
 316 1 11 -0.575 23.763 22.008 31.949
 317 1 6 0.017 23.209 22.181 31.099
 318 1 2 0.04 41.859 25.646 27.772
 319 1 1 -0.456 28.185 22.001 29.288
 320 1 1 0.16 26.908 22.441 29.546
 321 1 2 0.04 29.026 22.261 30.007
 322 1 2 0.009 29.545 21.051 28.003
 323 1 1 0.1115 23.439 18.613 25.840
 324 1 1 -0.099 23.284 18.242 24.478
 325 1 1 0.1115 22.182 17.442 24.106
 326 1 1 -0.1765 21.182 17.142 25.014
 327 1 2 0.24 24.313 19.209 26.131
 328 1 2 0.24 22.154 16.925 23.093
 329 1 12 0.34 24.292 18.519 23.422
 330 1 4 -0.255 24.477 17.765 22.497
 331 1 7 -0.297 25.185 19.467 23.685
 332 1 9 0.31 26.059 19.210 23.285
 333 1 7 -0.297 45.470 27.489 39.204
 334 1 1 0.1115 47.742 21.060 35.474
 335 1 1 -0.099 46.704 21.893 36.007
 336 1 1 0.1115 45.669 21.391 36.770
 337 1 1 -0.1765 47.913 19.738 35.959
 338 1 1 0.101 46.995 19.293 36.948
 339 1 1 -0.1765 45.837 20.097 37.267
 340 1 2 0.24 48.574 21.431 34.815
 341 1 2 0.24 44.732 21.911 36.880
 342 1 2 0.209 46.962 18.218 37.258
 343 1 10 0.473 49.146 18.901 35.724
 344 1 12 0.34 46.497 23.264 35.452
 345 1 4 -0.255 45.629 23.960 35.974
 346 1 4 0.1975 16.255 18.974 34.688
 347 1 7 -0.297 47.589 23.763 34.827
 348 1 9 0.31 48.464 23.465 35.179
 349 1 2 0.209 24.098 20.355 34.455
 350 1 10 0.457 25.943 48.733 23.834
 351 1 4 0.285 27.102 49.044 23.685
 352 1 10 0.457 21.141 24.391 25.246
 353 1 2 0.247 19.878 48.330 31.197
 354 1 10 0.457 17.925 15.833 29.803
 355 1 2 0.247 47.522 18.490 21.100
 356 1 10 0.457 48.596 16.368 22.557
 357 1 4 0.285 49.204 48.809 22.664
 358 1 4 0.285 25.950 25.407 31.247
 359 1 1 -0.456 32.628 20.632 39.188
 360 1 1 -0.031 31.662 21.580 38.730
 361 1 1 -0.456 31.753 22.162 37.456
 362 1 1 0.16 33.599 20.138 38.310
 363 1 1 -0.425 33.720 20.726 37.037
 364 1 1 0.16 32.774 21.743 36.610
 365 1 2 0.04 32.474 20.385 40.246
 366 1 2 0.009 30.871 21.936 39.402
 367 1 2 0.04 30.980 22.820 37.142
 368 1 11 -0.575 32.792 22.169 35.242
 369 1 11 -0.575 34.624 19.277 38.853
 370 1 2 0.075 34.453 20.311 36.366
 371 1 6 0.017 31.960 22.167 34.741
 372 1 1 -0.425 28.760 23.276 22.791
 373 1 11 -0.575 28.918 24.612 24.644
 374 1 2 0.075 27.728 23.374 22.751
 375 1 6 0.017 28.029 25.055 24.379
 376 1 6 0.017 28.682 20.665 20.938
 377 1 1 -0.456 33.838 18.388 30.424
 378 1 1 -0.425 32.512 20.327 29.971
 379 1 1 0.16 32.893 19.312 30.797
 380 1 11 -0.575 32.467 19.214 32.138
 381 1 2 0.075 31.750 21.094 30.147
 382 1 6 0.017 32.663 20.014 32.715
 383 1 1 -0.456 30.057 48.465 29.889
 384 1 1 -0.031 30.317 47.718 30.979
 385 1 1 -0.456 31.603 47.630 31.546
 386 1 2 0.04 28.996 48.700 29.706
 387 1 2 0.009 29.480 47.221 31.396
 388 1 2 0.04 31.776 47.078 32.477
 389 1 11 -0.575 25.845 48.196 29.753
 390 1 2 0.075 24.684 24.301 32.831
 391 1 11 -0.575 33.220 25.417 36.054
 392 1 6 0.017 33.664 24.531 36.052
 393 1 11 -0.575 26.661 23.343 30.621
 394 1 6 0.017 26.325 22.905 31.475
 395 1 4 0.1975 34.006 18.990 41.058
 396 1 1 -0.099 27.833 21.086 34.043
 397 1 1 0.1115 26.950 21.158 32.933
 398 1 1 0.101 25.076 20.548 34.353
 399 1 1 -0.1765 25.574 20.929 33.097
 400 1 2 0.24 27.268 21.308 31.906
 401 1 10 0.473 24.718 21.031 31.908
 402 1 12 0.34 29.275 21.509 33.914
 403 1 4 0.1975 24.994 20.490 30.867
 404 1 7 -0.297 29.702 22.118 34.987
 405 1 9 0.31 30.710 21.889 35.017
 406 1 10 0.457 31.965 18.062 32.768
 407 1 4 0.285 31.311 17.281 32.071
 408 1 1 0.151 32.575 23.595 32.571
 409 1 1 -0.139 33.761 23.009 33.109
 410 1 2 0.247 31.946 24.022 33.295
 411 1 10 0.457 33.923 22.665 34.548
 412 1 4 0.285 34.950 22.941 35.186
 413 1 1 -0.139 31.232 20.033 26.148
 414 1 1 0.151 30.547 20.131 24.931
 415 1 1 -0.139 29.578 19.181 24.568
 416 1 2 0.247 30.796 20.986 24.257
 417 1 10 0.457 29.114 19.060 23.097
 418 1 10 0.457 32.327 21.081 26.431
 419 1 4 0.285 32.783 21.813 25.555
 420 1 4 0.285 29.864 19.325 22.145
 421 1 1 0.151 27.835 24.763 28.298
 422 1 1 -0.139 26.754 25.218 29.099
 423 1 1 0.151 25.939 26.329 28.601
 424 1 1 -0.139 28.049 25.273 26.992
 425 1 1 0.151 27.234 26.353 26.500
 426 1 1 -0.139 26.303 26.950 27.366
 427 1 2 0.247 28.598 24.125 28.673
 428 1 2 0.247 25.188 26.726 29.255
 429 1 2 0.247 27.512 26.774 25.562
 430 1 10 0.457 28.981 24.492 26.022
 431 1 10 0.457 26.399 24.678 30.411
 432 1 1 -0.456 20.615 20.688 41.571
 433 1 1 -0.031 20.758 21.159 40.265
 434 1 1 -0.456 19.958 22.214 39.798
 435 1 1 0.16 19.718 21.251 42.445
 436 1 1 -0.425 18.908 22.283 41.959
 437 1 1 0.16 18.946 22.702 40.639
 438 1 2 0.04 21.123 19.774 41.990
 439 1 2 0.009 21.526 20.586 39.689
 440 1 2 0.04 20.188 22.566 38.820
 441 1 11 -0.575 18.230 23.844 40.140
 442 1 11 -0.575 19.382 20.554 43.597
 443 1 2 0.075 18.276 22.833 42.649
 444 1 6 0.017 18.459 20.129 43.534
 445 1 6 0.017 18.650 24.408 39.427
 446 1 1 -0.456 16.815 24.727 36.040
 447 1 1 -0.031 16.964 25.327 34.783
 448 1 1 0.16 16.996 23.321 36.153
 449 1 1 -0.425 17.426 22.545 35.051
 450 1 2 0.04 16.192 25.368 36.691
 451 1 2 0.009 16.683 26.418 34.635
 452 1 11 -0.575 16.478 22.652 37.285
 453 1 2 0.075 17.586 21.491 35.094
 454 1 6 0.017 49.169 23.056 37.597
 455 1 1 -0.456 26.600 18.366 41.328
 456 1 1 -0.425 25.536 17.737 39.247
 457 1 1 0.16 25.901 17.415 40.574
 458 1 2 0.04 26.849 18.189 42.324
 459 1 11 -0.575 25.788 16.145 41.047
 460 1 2 0.075 24.932 17.003 38.722
 461 1 6 0.017 26.615 49.099 40.855
 462 1 1 0.16 19.000 16.815 38.672
 463 1 11 -0.575 19.536 16.958 39.988
 464 1 6 0.017 19.053 16.539 40.792
 465 1 6 0.017 22.271 16.787 45.895
 466 1 2 0.009 17.068 47.436 60.520
 467 1 1 -0.456 17.054 25.556 43.611
 468 1 1 -0.031 15.969 26.296 43.991
 469 1 1 -0.456 16.104 27.700 43.954
 470 1 1 0.16 18.256 26.104 43.097
 471 1 2 0.04 17.078 24.531 43.965
 472 1 2 0.009 48.640 25.848 44.572
 473 1 2 0.04 48.904 28.258 44.509
 474 1 11 -0.575 19.415 25.345 43.104
 475 1 6 0.017 19.446 24.652 43.795
 476 1 4 0.1975 24.546 21.003 37.391
 477 1 1 0.1115 16.797 20.330 40.110
 478 1 1 -0.099 16.121 20.034 41.271
 479 1 1 -0.1765 16.225 21.201 39.164
 480 1 1 0.101 48.509 21.868 39.443
 481 1 1 -0.1765 47.846 21.594 40.593
 482 1 2 0.24 17.843 19.911 39.914
 483 1 2 0.209 48.101 22.668 38.826
 484 1 10 0.473 16.977 21.559 37.876
 485 1 12 0.34 16.668 19.147 42.321
 486 1 4 -0.255 15.981 19.027 43.342
 487 1 4 0.1975 17.912 20.909 37.489
 488 1 2 0.247 26.099 16.327 31.561
 489 1 1 0.151 20.960 16.801 42.585
 490 1 1 -0.139 21.557 16.969 41.312
 491 1 1 0.151 22.971 16.777 41.170
 492 1 1 -0.139 21.664 16.295 43.688
 493 1 1 0.151 23.076 16.116 43.589
 494 1 1 -0.139 23.699 16.366 42.335
 495 1 2 0.247 23.439 16.714 40.210
 496 1 2 0.247 23.519 49.141 44.466
 497 1 10 0.457 25.049 49.219 42.132
 498 1 10 0.457 20.808 17.500 40.122
 499 1 4 0.285 21.335 18.111 39.218
 500 1 4 0.285 25.254 48.141 42.654
 501 1 1 0.151 22.109 24.637 44.203
 502 1 1 -0.139 23.118 23.820 44.720
 503 1 1 0.151 23.740 22.922 43.845
 504 1 1 -0.139 21.682 24.487 42.852
 505 1 2 0.247 21.624 25.343 44.851
 506 1 10 0.457 20.600 25.473 42.335
 507 1 4 0.285 20.745 26.017 41.216
 508 1 4 0.285 16.444 23.755 41.584
 509 1 1 -0.456 37.994 21.908 40.870
 510 1 1 0.16 36.950 22.384 41.666
 511 1 2 0.04 37.981 21.436 39.907
 512 1 11 -0.575 35.638 22.554 41.108
 513 1 6 0.017 35.047 23.121 41.702
 514 1 6 0.017 35.297 19.095 38.184
 515 1 1 -0.456 26.677 19.842 39.512
 516 1 1 -0.031 26.990 19.563 40.809
 517 1 1 0.16 25.940 18.973 38.659
 518 1 2 0.04 27.031 20.763 39.051
 519 1 2 0.009 27.516 20.247 41.452
 520 1 11 -0.575 25.828 19.175 37.265
 521 1 6 0.017 26.440 18.656 36.662
 522 1 1 -0.456 30.623 22.340 47.391
 523 1 1 0.16 30.617 23.341 48.390
 524 1 1 -0.425 31.392 24.501 48.294
 525 1 2 0.04 30.072 21.443 47.410
 526 1 2 0.075 31.478 25.206 49.071
 527 1 2 0.04 34.148 17.732 31.183
 528 1 1 -0.456 26.495 16.559 45.820
 529 1 1 -0.031 26.976 17.163 44.671
 530 1 1 -0.456 28.333 17.279 44.468
 531 1 1 0.16 27.387 16.235 46.853
 532 1 1 -0.425 28.780 16.329 46.646
 533 1 1 0.16 29.211 16.817 45.416
 534 1 2 0.04 25.409 16.470 46.033
 535 1 2 0.009 26.230 17.459 43.948
 536 1 2 0.04 28.661 17.683 43.526
 537 1 11 -0.575 30.577 17.081 45.274
 538 1 11 -0.575 26.804 16.128 48.156
 539 1 2 0.075 29.417 16.225 47.495
 540 1 6 0.017 25.823 15.784 48.129
 541 1 6 0.017 31.164 16.399 45.712
 542 1 1 -0.425 22.833 20.757 47.896
 543 1 11 -0.575 21.698 19.078 49.229
 544 1 11 -0.575 23.866 22.497 46.555
 545 1 2 0.075 22.467 20.210 47.004
 546 1 6 0.017 23.812 21.891 45.810
 547 1 6 0.017 20.769 19.221 48.980
 548 1 1 -0.099 38.608 18.740 40.020
 549 1 1 0.1115 37.253 19.033 39.729
 550 1 1 -0.1765 36.223 18.504 40.455
 551 1 2 0.24 37.086 19.820 38.911
 552 1 10 0.473 34.842 18.985 40.194
 553 1 12 0.34 39.743 19.398 39.292
 554 1 4 -0.255 39.633 19.658 38.123
 555 1 7 -0.297 40.947 19.116 39.799
 556 1 9 0.31 41.533 19.770 39.375
 557 1 1 0.1115 27.257 20.789 35.317
 558 1 1 -0.1765 25.903 20.564 35.496
 559 1 2 0.24 27.987 20.723 36.153
 560 1 10 0.473 25.386 20.350 36.838
 561 1 4 -0.255 29.647 21.829 32.791
 562 1 2 0.247 24.569 22.303 44.175
 563 1 10 0.457 23.508 23.745 46.190
 564 1 4 0.285 23.245 24.604 46.958
 565 1 10 0.457 33.311 26.595 46.085
 566 1 4 0.285 32.446 27.201 45.516
 567 1 10 0.457 31.087 18.383 45.376
 568 1 4 0.285 30.512 19.461 45.139
 569 1 1 0.151 25.785 18.416 50.908
 570 1 1 0.151 23.459 17.997 51.484
 571 1 1 -0.139 25.707 17.620 49.744
 572 1 1 0.151 24.411 17.246 49.369
 573 1 1 -0.139 23.281 17.556 50.176
 574 1 2 0.247 24.194 16.797 48.378
 575 1 10 0.457 26.966 17.189 49.064
 576 1 4 0.285 27.821 18.020 49.043
 577 1 1 0.151 31.796 25.207 39.409
 578 1 1 -0.139 32.750 25.114 38.375
 579 1 1 0.151 33.797 24.173 38.504
 580 1 1 -0.139 31.857 24.342 40.471
 581 1 1 0.151 33.003 23.612 40.726
 582 1 1 -0.139 33.978 23.471 39.705
 583 1 2 0.247 34.444 23.970 37.656
 584 1 2 0.247 33.048 23.144 41.680
 585 1 10 0.457 30.736 24.324 41.414
 586 1 10 0.457 35.226 22.646 39.806
 587 1 4 0.285 29.625 24.129 41.123
 588 1 4 0.285 35.748 21.981 38.915
 589 1 2 0.009 27.859 48.560 61.753
 590 1 1 -0.456 17.071 24.267 46.833
 591 1 1 -0.031 18.354 23.983 46.390
 592 1 1 -0.456 19.348 23.764 47.373
 593 1 2 0.009 18.618 23.747 45.356
 594 1 2 0.04 20.346 23.570 46.978
 595 1 1 -0.031 17.840 47.239 59.772
 596 1 1 -0.456 19.174 47.382 60.211
 597 1 1 0.16 20.112 47.348 59.194
 598 1 2 0.04 19.359 47.559 61.246
 599 1 11 -0.575 21.457 47.570 59.500
 600 1 6 0.017 21.703 48.477 59.896
 601 1 1 -0.456 18.712 20.036 54.251
 602 1 1 -0.031 18.943 18.818 53.543
 603 1 1 -0.456 18.897 18.879 52.148
 604 1 1 0.16 18.355 21.245 53.615
 605 1 1 -0.425 18.334 21.188 52.201
 606 1 1 0.16 18.560 20.013 51.458
 607 1 2 0.04 18.817 20.116 55.319
 608 1 2 0.009 19.259 17.913 54.019
 609 1 2 0.04 19.223 17.952 51.706
 610 1 11 -0.575 18.263 20.012 50.067
 611 1 2 0.075 18.041 21.985 51.658
 612 1 6 0.017 18.858 19.449 49.458
 613 1 2 0.04 24.560 23.478 48.775
 614 1 1 0.1115 22.709 16.734 60.657
 615 1 1 -0.099 22.798 17.512 59.468
 616 1 1 0.1115 24.015 17.646 58.790
 617 1 1 -0.1765 23.793 15.958 61.098
 618 1 2 0.24 21.748 16.731 61.186
 619 1 2 0.24 24.088 18.235 57.893
 620 1 12 0.34 21.574 18.136 58.829
 621 1 4 -0.255 20.597 18.487 59.457
 622 1 4 0.1975 22.848 48.594 63.167
 623 1 7 -0.297 21.684 18.613 57.593
 624 1 9 0.31 22.187 17.859 57.119
 625 1 1 -0.099 21.085 43.476 60.635
 626 1 1 0.1115 21.722 44.705 60.474
 627 1 1 -0.1765 22.108 45.212 59.211
 628 1 2 0.24 21.949 45.297 61.321
 629 1 10 0.473 22.465 46.670 59.131
 630 1 12 0.34 20.483 43.145 61.927
 631 1 4 -0.255 20.894 43.734 62.926
 632 1 4 0.1975 23.575 47.018 58.853
 633 1 7 -0.297 19.501 42.223 62.029
 634 1 9 0.31 18.820 42.259 61.302
 635 1 7 -0.297 27.329 25.593 43.418
 636 1 9 0.31 26.894 25.228 42.679
 637 1 2 0.24 46.762 47.637 61.746
 638 1 7 -0.297 45.460 45.978 63.097
 639 1 9 0.31 45.258 46.166 62.107
 640 1 1 0.151 16.171 21.058 47.296
 641 1 1 0.151 17.309 21.153 45.163
 642 1 1 -0.139 17.380 20.732 47.932
 643 1 1 0.151 18.602 20.571 47.218
 644 1 1 -0.139 18.552 20.816 45.776
 645 1 2 0.247 19.578 20.516 47.819
 646 1 10 0.457 17.298 20.753 49.382
 647 1 10 0.457 19.776 20.986 44.869
 648 1 4 0.285 16.613 21.587 49.996
 649 1 4 0.285 20.713 21.674 45.068
 650 1 6 0.017 26.495 15.905 56.161
 651 1 11 -0.575 29.698 23.213 49.364
 652 1 6 0.017 29.982 22.614 50.165
 653 1 1 -0.425 30.135 20.574 51.643
 654 1 1 0.16 29.947 19.302 51.161
 655 1 11 -0.575 30.716 18.813 50.046
 656 1 2 0.075 30.865 21.236 51.274
 657 1 6 0.017 30.463 19.232 49.224
 658 1 1 0.16 30.754 16.317 56.959
 659 1 1 -0.425 32.005 16.852 56.648
 660 1 11 -0.575 30.528 15.876 58.319
 661 1 2 0.075 32.683 17.204 57.436
 662 1 1 -0.456 23.475 45.807 63.652
 663 1 1 0.16 24.580 46.582 63.343
 664 1 2 0.04 22.707 45.783 62.985
 665 1 11 -0.575 24.602 47.440 62.278
 666 1 6 0.017 25.395 47.449 61.657
 667 1 1 -0.456 24.024 22.534 48.880
 668 1 1 -0.031 23.791 21.996 50.125
 669 1 1 -0.456 23.054 20.836 50.304
 670 1 1 0.16 23.554 21.886 47.786
 671 1 1 0.16 22.577 20.164 49.151
 672 1 2 0.009 24.049 22.597 51.038
 673 1 2 0.04 22.779 20.658 51.307
 674 1 1 0.1115 30.633 19.503 55.960
 675 1 1 -0.099 29.886 19.442 57.141
 676 1 1 0.1115 30.425 19.785 58.357
 677 1 1 -0.1765 31.952 19.962 55.928
 678 1 1 0.101 32.551 20.239 57.125
 679 1 1 -0.1765 31.811 20.170 58.348
 680 1 2 0.24 30.133 19.141 55.018
 681 1 2 0.24 29.964 19.573 59.353
 682 1 10 0.473 32.876 19.470 54.822
 683 1 12 0.34 28.510 18.890 57.107
 684 1 4 -0.255 27.675 18.944 58.006
 685 1 4 0.1975 33.547 20.309 54.231
 686 1 7 -0.297 28.045 18.410 55.960
 687 1 9 0.31 28.742 17.713 55.671
 688 1 1 0.101 24.963 15.920 60.299
 689 1 1 -0.1765 25.043 16.741 59.166
 690 1 2 0.209 25.747 48.721 60.516
 691 1 10 0.473 23.739 48.558 62.280
 692 1 10 0.473 26.110 16.337 58.136
 693 1 1 0.1115 27.539 24.156 46.820
 694 1 1 -0.1765 28.127 24.426 48.023
 695 1 2 0.24 26.998 23.247 46.584
 696 1 10 0.473 28.339 23.421 49.041
 697 1 4 0.1975 27.425 22.874 49.630
 698 1 1 0.151 30.124 23.752 55.718
 699 1 2 0.247 30.177 22.702 55.924
 700 1 10 0.457 30.395 48.014 58.560
 701 1 4 0.285 30.373 47.261 57.609
 702 1 1 0.151 33.364 17.501 46.080
 703 1 1 -0.139 32.217 18.297 46.302
 704 1 1 0.151 31.913 18.439 47.604
 705 1 1 -0.139 32.557 17.827 48.719
 706 1 2 0.247 30.961 18.967 47.755
 707 1 10 0.457 31.946 18.088 50.097
 708 1 4 0.285 32.321 17.562 51.114
 709 1 2 0.247 22.510 18.210 52.082
 710 1 10 0.457 21.941 17.756 49.613
 711 1 4 0.285 21.064 16.917 49.637
 712 1 1 -0.456 29.410 16.053 62.963
 713 1 1 -0.031 28.387 16.014 62.000
 714 1 1 0.16 29.941 17.289 63.374
 715 1 1 -0.425 29.564 18.424 62.802
 716 1 2 0.04 29.814 48.648 63.365
 717 1 11 -0.575 30.820 17.352 64.513
 718 1 2 0.075 30.086 19.330 63.150
 719 1 6 0.017 31.645 17.871 64.387
 720 1 1 0.1115 27.958 16.942 65.527
 721 1 1 0.101 29.121 48.405 66.297
 722 1 1 -0.1765 29.162 16.263 65.875
 723 1 2 0.24 27.919 17.998 65.399
 724 1 2 0.209 30.098 47.892 66.488
 725 1 10 0.473 30.493 16.954 65.814
 726 1 4 0.1975 31.393 17.021 66.601
 727 1 1 0.16 29.286 23.307 59.890
 728 1 2 0.04 31.156 22.410 60.378
 729 1 11 -0.575 29.612 23.377 58.516
 730 1 6 0.017 28.837 23.302 57.828
 731 1 1 -0.456 27.917 17.189 61.513
 732 1 1 0.16 28.534 18.412 61.898
 733 1 2 0.04 27.153 17.290 60.733
 734 1 1 -0.031 32.919 44.457 65.591
 735 1 1 -0.456 33.094 45.858 65.544
 736 1 1 -0.425 30.816 46.105 64.660
 737 1 1 0.16 32.038 46.660 65.004
 738 1 2 0.009 33.665 43.802 65.993
 739 1 2 0.04 33.946 46.361 66.026
 740 1 11 -0.575 32.499 47.923 64.493
 741 1 2 0.075 30.051 46.782 64.249
 742 1 6 0.017 33.087 48.530 65.068
 743 1 1 -0.031 23.392 45.062 64.835
 744 1 1 -0.456 24.503 44.943 65.633
 745 1 1 -0.425 25.792 46.413 64.098
 746 1 1 0.16 25.671 45.609 65.237
 747 1 2 0.009 22.411 44.593 65.116
 748 1 2 0.04 24.453 44.358 66.563
 749 1 11 -0.575 26.818 45.407 66.074
 750 1 2 0.075 26.670 46.925 63.811
 751 1 6 0.017 27.012 44.415 66.240
 752 1 1 0.1115 26.630 48.435 66.099
 753 1 1 -0.099 26.715 16.241 65.590
 754 1 1 -0.1765 27.842 47.741 66.348
 755 1 2 0.24 25.695 47.804 66.172
 756 1 10 0.473 27.870 46.247 66.485
 757 1 12 0.34 25.445 17.003 65.209
 758 1 4 -0.255 24.348 16.531 65.485
 759 1 4 0.1975 28.841 45.742 67.033
 760 1 12 0.34 17.729 16.927 58.327
 761 1 4 -0.255 18.616 17.001 57.498
 762 1 7 -0.297 16.587 16.280 57.917
 763 1 9 0.31 16.783 49.178 57.136
 764 1 1 -0.139 30.506 24.598 56.755
 765 1 2 0.247 30.713 26.647 57.459
 766 1 10 0.457 30.760 23.983 58.086
 767 1 4 0.285 31.621 24.344 58.857
 768 1 1 0.151 32.078 46.219 62.118
 769 1 1 -0.139 31.698 45.462 61.012
 770 1 1 0.151 31.125 46.082 59.889
 771 1 1 -0.139 31.888 47.624 62.114
 772 1 1 0.151 31.289 48.233 61.017
 773 1 1 -0.139 30.895 47.511 59.872
 774 1 2 0.247 32.745 45.827 62.857
 775 1 2 0.247 30.972 45.419 59.013
 776 1 2 0.247 31.149 49.253 61.025
 777 1 10 0.457 32.496 48.454 63.216
 778 1 4 0.285 32.986 16.034 62.979
 779 1 9 0.31 26.383 17.409 63.708
 780 1 7 -0.297 25.561 17.721 64.079
 781 1 1 -0.456 30.244 22.820 60.762
 782 1 1 -0.031 23.237 22.238 2.708
 783 1 1 -0.456 24.264 22.934 3.315
 784 1 1 -0.425 22.647 24.662 3.693
 785 1 1 0.16 23.931 24.140 3.886
 786 1 2 0.04 25.288 22.569 3.403
 787 1 11 -0.575 24.708 24.826 4.871
 788 1 2 0.075 22.400 25.607 4.170
 789 1 6 0.017 24.426 25.801 4.940
 790 1 1 -0.139 23.732 24.587 6.948
 791 1 2 0.247 22.422 23.302 5.795
 792 1 10 0.457 24.868 24.187 6.068
 793 1 4 0.285 25.388 23.107 6.097
 794 1 1 -0.456 25.191 33.581 2.304
 795 1 1 -0.031 26.369 32.868 2.069
 796 1 1 -0.456 26.694 31.754 2.844
 797 1 1 0.16 24.388 33.192 3.407
 798 1 1 -0.425 24.798 32.127 4.253
 799 1 1 0.16 25.830 31.349 3.886
 800 1 2 0.04 24.985 34.397 1.602
 801 1 2 0.009 27.073 33.191 1.307
 802 1 2 0.04 27.639 31.343 2.559
 803 1 11 -0.575 25.978 30.043 4.401
 804 1 6 0.017 25.849 29.239 3.779
 805 1 4 0.1975 24.326 41.179 2.265
 806 1 4 -0.255 24.949 27.706 1.666
 807 1 1 0.151 28.141 31.364 6.581