LAMMPS data file via write_data, version 29 Oct 2020, timestep = 101118

900 atoms
16 atom types
600 bonds
19 bond types
300 angles
24 angle types
0 dihedrals
42 dihedral types

-10.0 10.0 xlo xhi
-10.0 10.0 ylo yhi
-10.0 10.0 zlo zhi

Masses

1 12.01
2 1.008
3 12.01
4 16
5 14.01
6 1.008
7 16
8 14.01
9 1.008
10 12.01
11 14.01
12 12.01
13 1.008
14 16
15 16
16 1.008

Pair Coeffs # lj/charmm/coul/long/omp

1 0.086 3.39967 0.086 3.39967
2 0.015 2.59964 0.015 2.59964
3 0.086 3.39967 0.086 3.39967
4 0.21 2.95992 0.21 2.95992
5 0.17 3.25 0.17 3.25
6 0.0157 1.06908 0.0157 1.06908
7 0.2104 3.06647 0.2104 3.06647
8 0.17 3.25 0.17 3.25
9 0 0 0 0
10 0.086 3.39967 0.086 3.39967
11 0.17 3.25 0.17 3.25
12 0.086 3.39967 0.086 3.39967
13 0.0157 1.06908 0.0157 1.06908
14 0.2104 3.06647 0.2104 3.06647
15 0.102 3.188 0.102 3.188
16 0 0.4 0 0.4

Atoms # full

478 160 15 -0.834 -1.036732397005845 -6.934600885790062 -8.106210095581272 0 0 0
98 33 16 0.417 -1.789837319210822 -8.098662137258826 -8.393584579336421 0 1 0
99 33 16 0.417 -1.859201541002752 -8.005803551382558 -8.552207697095817 0 0 0
169 57 15 -0.834 -9.939217714630109 -8.541508925086283 -7.471004919879595 1 0 0
747 249 16 0.417 -5.819521729003809 -8.137579196813691 -6.954330029552679 0 1 0
893 298 16 0.417 -8.093982984844173 -7.620971384816945 -9.377886261616414 0 0 0
745 249 15 -0.834 -5.8185873879931265 -7.374338188213109 -6.376667322319713 0 1 0
97 33 15 -0.834 -2.301667096226025 -8.837094468261773 -8.723705499766925 0 1 0
796 266 15 -0.834 -5.736324111828106 -9.414462491779453 -7.647494283879094 0 1 1
555 185 16 0.417 -6.860969081333757 -6.344475117032168 -6.044868577622095 0 0 0
554 185 16 0.417 -6.930899763315241 -6.456543700442076 -5.957082593768951 0 0 0
746 249 16 0.417 -5.9259098824600445 -8.15989973924544 -6.912957171953479 0 1 0
35 12 16 0.417 -9.030401870874888 -5.507256261715499 -9.340722145119555 0 0 1
892 298 15 -0.834 -7.570965105119169 -8.3851389511068 -9.62023328250108 0 0 1
553 185 15 -0.834 -7.62322155955129 -5.808866067424974 -5.825036914258177 0 0 0
479 160 16 0.417 -0.724601654060205 -6.24989330681309 -7.514617512986836 0 0 0
863 288 16 0.417 -2.2453046585117566 -9.789553723037582 -5.218315314228026 0 1 0
790 264 15 -0.834 -4.692621995158548 -6.069473112351011 -9.374764927549165 0 0 0
34 12 15 -0.834 -8.988225882618627 -6.42822190854132 -9.59816206779662 1 0 1
170 57 16 0.417 -9.991993022518999 -9.174397097677392 -8.18717471718909 1 0 0
894 298 16 0.417 -8.142703231491684 -7.625379110235372 -9.51017711741035 1 0 1
480 160 16 0.417 -0.7533065735372072 -6.233229310378632 -7.519712390984166 0 0 0
581 194 16 0.417 -3.7069076405775983 -5.514345454967288 -8.555589791200541 0 0 0
582 194 16 0.417 -3.826132904671882 -5.469560588870147 -8.45656437166701 0 0 0
36 12 16 0.417 -8.960103342392529 -5.475626163139727 -9.50870611876215 0 0 1
352 118 15 -0.834 -0.2966858974155304 -5.420501869941002 -6.379841510868869 0 0 0
580 194 15 -0.834 -3.125473669670311 -5.142818794270894 -7.892163552115976 0 0 0
862 288 15 -0.834 -1.470088438034809 -9.921292645645973 -5.764132610591468 0 1 0
864 288 16 0.417 -2.2331661773279414 -9.866953169868701 -5.18881403467754 0 1 0
143 48 16 0.417 -0.4415224256371864 -7.6406183381323975 -5.10587226366454 0 0 0
575 192 16 0.417 -4.73116867585513 -5.833918173649498 -3.883966023961734 0 0 0
452 151 16 0.417 -3.3547102256417367 -8.212195058832116 -1.5399007507446643 0 0 0
509 170 16 0.417 -5.611341040441392 -8.888868642823995 -1.9800356149272584 0 1 0
386 129 16 0.417 -9.900247301203143 -7.666974944277525 -3.283273932092157 0 0 0
24 8 16 0.417 -0.9968609917292414 -8.396058738838802 -1.7001620136769284 0 0 0
607 203 15 -0.834 -0.5386069184758449 -5.714907926485063 -1.27643327599901 0 0 0
576 192 16 0.417 -4.6986452089376645 -5.78637906151245 -3.9786798906297607 0 0 0
241 81 15 -0.834 -3.4961610669089036 -6.559629050879103 -4.339038763927156 0 0 0
242 81 16 0.417 -2.6213495034757575 -6.938898513553646 -4.423248515715222 0 0 0
405 135 16 0.417 -8.979035085828794 -9.001090929799073 -0.02612406480199869 1 1 0
22 8 15 -0.834 -0.10333529104849434 -8.676072493325046 -1.89874704635394 0 0 0
451 151 15 -0.834 -2.4069311145964813 -8.276813719732178 -1.4225506731553739 0 0 0
453 151 16 0.417 -3.338928863430537 -8.416351462652164 -1.5903042562610799 0 0 0
510 170 16 0.417 -5.577425828185426 -8.78494793614904 -2.1100165776644113 0 1 0
364 122 15 -0.834 -3.42921055258991 -9.941172171744338 -4.300601700481267 0 1 0
243 81 16 0.417 -2.622127478177337 -6.790811469231262 -4.653445860279369 0 0 0
123 41 16 0.417 -9.042200885954614 -5.947845839914091 -1.794944111100047 0 0 0
700 234 15 -0.834 -6.503405068457493 -9.292826339537257 -3.049389225940122 0 1 0
23 8 16 0.417 -0.9908763637137952 -8.387371545277182 -1.686251195473532 0 0 0
387 129 16 0.417 -9.994477564801109 -7.580691938055277 -3.3345188777411368 0 0 0
508 170 15 -0.834 -4.809491382663976 -8.532922212169364 -1.597189521647624 0 1 0
122 41 16 0.417 -9.184459046311215 -5.791895147862062 -1.8136592465973678 0 0 0
404 135 16 0.417 -8.996146895555043 -8.967878124606164 -0.050828845027067 1 1 0
60 20 16 0.417 -1.9099439798577784 -5.445148025697029 -0.8397804564959283 0 0 0
701 234 16 0.417 -6.840148228098326 -9.734466647649215 -3.8289979286538682 0 1 0
702 234 16 0.417 -6.84722726188623 -9.615313844790567 -3.882467833015422 0 1 0
58 20 15 -0.834 -2.807693615230704 -5.120410622711679 -0.9092288607981127 0 0 0
121 41 15 -0.834 -8.679647532923388 -5.390506538593039 -1.1063514185891288 0 0 0
574 192 15 -0.834 -5.437068209975916 -5.187663433024437 -3.8668633820664198 0 0 0
385 129 15 -0.834 -9.685736669291778 -6.960846689947993 -2.6736839710849023 0 0 0
144 48 16 0.417 -0.37202228999939757 -7.567391357941418 -4.828595963026221 0 0 0
142 48 15 -0.834 -1.3197448363363695 -7.441635069723703 -4.7812756677690205 0 0 0
59 20 16 0.417 -1.8946070801532988 -5.401762097041636 -0.9670750207980079 0 0 0
527 176 16 0.417 -7.33883060864903 -7.30149931911096 2.8945977296505983 0 0 0
528 176 16 0.417 -7.341313449933618 -7.076244216814713 2.8169257154186904 0 0 0
229 77 15 -0.834 -0.8630015647094775 -8.37025437257268 1.3107359207276168 0 1 0
145 49 15 -0.834 -3.5458037492039503 -7.635329811292318 2.758141142079954 0 0 0
146 49 16 0.417 -3.1693927053148725 -6.800023571087792 2.4809948604318826 0 0 0
147 49 16 0.417 -3.2373031501048803 -6.760784558460516 2.5210128564837273 0 0 0
231 77 16 0.417 -0.259718673071689 -7.6340442376282205 1.4121077867890988 0 1 0
516 172 16 0.417 -2.617582807839239 -9.812479391060794 4.76135591615054 0 1 0
714 238 16 0.417 -9.506548098860398 -6.375951662528913 3.3696370357143857 0 0 0
66 22 16 0.417 -8.631328204048058 -5.102816658410029 0.3284024902394943 0 0 0
511 171 15 -0.834 -5.173798599098422 -9.610085811556653 2.4739725694082813 0 0 0
526 176 15 -0.834 -6.753272398198719 -7.426525278365441 2.147789898801896 0 0 0
10 4 15 -0.834 -7.463741877767432 -9.791347099489261 3.3156716770368293 0 1 0
512 171 16 0.417 -4.57714924976887 -8.89107438612042 2.681972523539822 0 0 0
513 171 16 0.417 -4.60968093937327 -8.847237443165932 2.6007223363785776 0 0 0
713 238 16 0.417 -9.482633162303184 -6.298803220919716 3.3697340605944763 0 0 0
274 92 15 -0.834 -2.788737177329641 -5.3884141321163534 2.0530835724494185 0 0 0
11 4 16 0.417 -6.659363596268054 -9.836768148548606 2.7988115799060136 0 0 0
712 238 15 -0.834 -8.608953485507017 -6.6122067357147225 3.6036013440810883 0 0 0
515 172 16 0.417 -2.4734203139579565 -9.84180856594708 4.824695272947243 0 0 0
191 64 16 0.417 -1.8640870254551511 -9.377287831126711 0.9649899079906248 0 1 0
230 77 16 0.417 -0.2891725340734253 -7.6105246362759855 1.409542897756103 0 1 0
876 292 16 0.417 -6.95090929307499 -7.908607034415691 0.5316572698487723 0 0 0
875 292 16 0.417 -7.010756113400077 -7.872300728789124 0.5613731815802142 1 1 0
192 64 16 0.417 -1.9185629339878032 -9.3535959169125 1.0929768786145633 0 1 0
12 4 16 0.417 -6.616018658278108 -9.767506638985333 2.8717923819328064 0 1 0
534 178 16 0.417 -8.848485180971716 -9.894587657978025 3.670086742980119 0 0 0
64 22 15 -0.834 -8.509416083940973 -5.146889735556785 1.276783658674432 0 0 0
65 22 16 0.417 -8.524648907525233 -5.176717724618409 0.3201697875065549 0 0 0
533 178 16 0.417 -8.775150382492301 -9.955505719123332 3.869928813838278 1 0 0
403 135 15 -0.834 -9.856448746778895 -9.379119153853784 0.032797671831776086 1 1 0
874 292 15 -0.834 -7.570922223918328 -8.473178720056268 0.0700571851402181 1 1 0
157 53 15 -0.834 -6.518855122833097 -8.363363046519769 6.085222761934742 0 0 0
158 53 16 0.417 -7.1631769002445695 -8.979763299885082 6.433263026756432 0 0 0
159 53 16 0.417 -7.034147685889085 -9.13118023794728 6.332532652701255 0 0 0
880 294 15 -0.834 -5.584472698782042 -9.209628610072263 9.359722200982246 0 0 0
666 222 16 0.417 -2.780142073955487 -6.172590416285197 7.587367138930248 0 0 0
331 111 15 -0.834 -6.257232516106174 -6.2331701313403265 8.621924884692007 0 0 0
882 294 16 0.417 -6.288426524458726 -8.7451289328158 9.812404118076278 0 0 0
890 297 16 0.417 -9.155376039216392 -6.100803538856019 6.9561727476447786 0 0 0
823 275 15 -0.834 -8.209830763548029 -9.959099196092199 6.837222547015976 1 0 0
705 235 16 0.417 -2.760780162032908 -7.989274495094373 6.168663738354324 0 1 0
332 111 16 0.417 -7.011502933396548 -5.916040421719175 8.125198867611402 0 0 0
664 222 15 -0.834 -3.068926361485254 -6.846047469985645 6.9715010149344 0 0 0
881 294 16 0.417 -6.382416788346534 -8.856282499461464 9.752995134560491 0 0 0
889 297 15 -0.834 -8.373329975269703 -5.828653335934531 7.436349916736985 0 0 0
891 297 16 0.417 -9.146877936899227 -6.098418573590945 6.941292225357814 0 0 0
440 147 16 0.417 -6.245766467598958 -6.983116881923326 5.401380684138672 0 0 0
792 264 16 0.417 -5.129835776450642 -6.4136294948988315 9.846369013620139 0 0 0
825 275 16 0.417 -8.812743454863945 -9.487712301954367 7.412133451084826 1 0 0
333 111 16 0.417 -7.104434759002558 -6.047603280200705 8.216900005325817 0 0 0
703 235 15 -0.834 -2.7129545538033746 -8.788033659219092 5.6433749102454085 0 0 0
824 275 16 0.417 -8.867569461424914 -9.471433923549181 7.332998969268341 1 0 0
665 222 16 0.417 -2.69968803979295 -6.263885270194252 7.6355658975456535 0 0 0
43 15 15 -0.834 -2.2229832278745243 -5.3268698357633975 8.59567568449133 0 0 -1
704 235 16 0.417 -2.8362320812176502 -8.024433642400208 6.207245055736701 0 0 0
791 264 16 0.417 -5.206446623793519 -6.24004748546981 9.835855268870935 0 0 -1
441 147 16 0.417 -6.44255420899047 -6.876968811825235 5.650165412464638 0 0 0
613 205 15 -0.834 -9.91861767146286 -8.75076459457081 7.982332772772563 1 0 0
449 150 16 0.417 -4.886831463000568 -9.984373597748387 8.404532343606302 0 1 0
217 73 15 -0.834 -0.3942212213302675 -9.867890852553398 8.955009796382942 0 0 0
450 150 16 0.417 -5.152718020778069 -9.89729056678436 8.261938747999983 0 1 0
439 147 15 -0.834 -6.1629637566679465 -6.036297131325743 5.287767633548723 0 0 0
688 230 15 -0.834 -3.020568694367646 -3.240017719745505 -6.415437229238369 0 0 0
504 168 16 0.417 -0.06886709550631404 -3.8277239712390307 -9.480152851827382 0 0 0
412 138 15 -0.834 -9.543464990236762 -1.8308448276762268 -5.511526433159096 0 0 0
354 118 16 0.417 -0.2857964178031741 -4.802579312755459 -5.648893507656173 0 0 0
829 277 15 -0.834 -9.949427612027886 -1.994480954243729 -8.80632350355201 0 0 0
245 82 16 0.417 -6.393791953840318 -2.335060892289749 -7.908175291577094 0 0 0
246 82 16 0.417 -6.473803248360391 -2.3202402900500436 -7.9631383874789226 0 0 0
353 118 16 0.417 -0.27311586367973245 -4.797414561975584 -5.653591849957357 0 0 0
337 113 15 -0.834 -7.095688511374634 -1.8310913528953279 -6.843395841064876 0 0 0
602 201 16 0.417 -9.4436600098417 -3.2431332334316036 -9.029838728610086 0 0 1
603 201 16 0.417 -9.221195850198997 -3.1375937017777678 -9.252672218088316 0 0 1
689 230 16 0.417 -3.0871357736029306 -3.910250571828923 -7.095575887027234 0 0 0
339 113 16 0.417 -7.31341416489516 -1.3400163220525338 -6.051137862457126 0 0 0
601 201 15 -0.834 -9.077834017696622 -4.0822880675356465 -9.309521319817545 0 0 1
244 82 15 -0.834 -5.992649397022762 -2.7248491615566177 -8.684951716817404 0 0 0
338 113 16 0.417 -7.227917108840345 -1.3860447594302518 -6.0063289569068585 0 0 0
239 80 16 0.417 -8.704939950046263 -4.929091845457371 -5.669038409072172 0 0 0
690 230 16 0.417 -2.716440130410105 -3.8786342547744894 -7.060345424188936 0 0 0
238 80 15 -0.834 -9.411478916911848 -4.291186890390566 -5.769595886528144 0 0 0
240 80 16 0.417 -8.681460329968147 -4.895631906941579 -5.9035769544298615 0 0 0
503 168 16 0.417 -0.1175807246573319 -3.7370719897627915 -9.44210881569108 0 0 0
414 138 16 0.417 -9.571328546423079 -2.7873347886336757 -5.487393098898845 1 0 0
413 138 16 0.417 -9.472824107660063 -2.784749792578357 -5.547679293346636 1 0 0
428 143 16 0.417 -6.645145357581973 -0.024393703916698407 -9.75817960973499 0 0 0
342 114 16 0.417 -5.245716124394785 -3.240824195797317 -9.933036815038314 0 0 1
671 224 16 0.417 -0.3611405204182092 -3.415864681762458 -3.6843309904317945 0 0 0
696 232 16 0.417 -3.3127644240441323 -1.579192905071158 -2.7892009531369877 0 0 0
806 269 16 0.417 -0.02011923808848231 -1.7277465772462537 -2.1966957339190354 0 0 0
760 254 15 -0.834 -6.534946327203274 -3.0409709477126974 -3.4876804904642125 0 0 0
344 115 16 0.417 -7.56376253925733 -2.277035421487343 -2.934247747719796 0 0 0
762 254 16 0.417 -6.025374096560831 -3.811375903920775 -3.7387665586020007 0 0 0
343 115 15 -0.834 -8.342456259293009 -1.8537140614183907 -2.5727688490356724 0 0 0
695 232 16 0.417 -3.1520336212723827 -1.6505371747046649 -2.7883298736400373 0 0 0
20 7 16 0.417 -2.8629759485976973 -0.07200582029235006 -0.7969189733774055 0 0 0
851 284 16 0.417 -9.169127516227652 -0.6538382166212878 -2.755875588543024 1 0 0
472 158 15 -0.834 -5.077985067488153 -4.233043984919754 -0.3829653563124175 0 0 0
345 115 16 0.417 -7.5872928997837015 -2.341495451244202 -2.9014472047294757 0 0 0
807 269 16 0.417 -0.08275272848234412 -1.7585933778693128 -2.115566211580861 0 0 0
21 7 16 0.417 -2.714607995337997 -0.12170958253888156 -0.8751234155305065 0 0 0
658 220 15 -0.834 -3.398823425691753 -2.309362002794384 -4.111098254465281 0 0 0
659 220 16 0.417 -3.3717083623552293 -2.726096698414016 -4.972393099753532 0 0 0
660 220 16 0.417 -3.1468059563413946 -2.582505280493661 -4.993204707565363 0 0 0
694 232 15 -0.834 -3.033592182760276 -1.157060336580406 -1.9767363061498484 0 0 0
473 158 16 0.417 -4.284497766382925 -4.608217463126308 -0.7648745214696717 0 0 0
761 254 16 0.417 -6.01980495016665 -3.827469363055501 -3.6673510054096856 0 0 0
293 98 16 0.417 -6.125184747091842 -3.273225831093033 -0.04865183142667296 0 0 0
850 284 15 -0.834 -9.775517290986164 -0.05260925721935712 -3.1883649901099664 0 0 0
805 269 15 -0.834 -0.006500104635262905 -2.6465022919627685 -2.4649014976532477 0 0 0
852 284 16 0.417 -9.155503367575367 -0.7121895111171734 -2.87728857068506 0 0 0
474 158 16 0.417 -4.195616917390643 -4.594873453071169 -0.4650492018909038 0 0 0
672 224 16 0.417 -0.3212932274889779 -3.644613358850294 -3.5859781511093454 0 0 0
670 224 15 -0.834 -0.39324880670728973 -3.912106944841319 -4.502221273864203 0 0 0
262 88 15 -0.834 -0.32221921043466634 -0.5954009411301625 -4.672667045751404 0 0 0
294 98 16 0.417 -6.090168388059064 -3.2138552697552423 -0.13897171547267761 0 0 0
264 88 16 0.417 -1.152758943077549 -0.13299754772462064 -4.785000246139124 0 0 0
406 136 15 -0.834 -6.984276076709075 -0.3658092992192342 -4.813915259571706 0 0 0
276 92 16 0.417 -2.9932845860413595 -4.465518868861242 1.9025627039572264 0 0 0
735 245 16 0.417 -6.455914415324004 -2.7281579173968153 3.890369032553761 0 0 0
847 283 15 -0.834 -3.505897287725749 -0.7310916967844658 2.223383530969307 0 0 0
200 67 16 0.417 -3.247762713076461 -2.1381743281307424 2.1410765096121382 0 0 0
201 67 16 0.417 -3.3690811464143775 -2.056226007898143 1.8599343415400686 0 0 0
119 40 16 0.417 -7.025221346865237 -0.40794772996580003 3.321723959770192 0 0 0
120 40 16 0.417 -7.356754290510095 -0.6035800870192227 3.117413848175288 0 0 0
379 127 15 -0.834 -5.844512657191257 -4.000613113364344 4.161083116769688 0 0 0
199 67 15 -0.834 -3.3076838962356945 -3.003387300487037 1.7360483498923065 0 0 0
734 245 16 0.417 -6.505542346492436 -2.7286979914366207 3.966970553925648 0 0 0
496 166 15 -0.834 -0.4740986578574379 -2.8333713850788507 4.285419562141581 0 0 0
497 166 16 0.417 -1.3140854956523076 -3.1508041373830173 4.616916804700742 0 0 0
498 166 16 0.417 -1.1540435895863204 -3.3855140371007892 4.671483418723964 0 0 0
733 245 15 -0.834 -6.877738125541386 -1.895745475467338 3.6773288173119276 0 0 0
775 259 15 -0.834 -9.089189614257537 -2.1864408488964906 0.3635743523853694 1 0 0
275 92 16 0.417 -3.0354592786316146 -4.500530288433726 1.7941968587700434 0 0 0
381 127 16 0.417 -5.919569115179928 -4.862556460265113 4.570536467397809 0 0 0
380 127 16 0.417 -6.098377913027692 -4.7855288531515505 4.646563862273464 0 0 0
777 259 16 0.417 -8.142659374089835 -2.1953837509040026 0.22133376647951775 1 0 0
292 98 15 -0.834 -6.803768817545047 -2.6061774563709466 0.05528069525498385 0 0 0
776 259 16 0.417 -8.162641950094653 -2.300760209805952 0.15221598338499118 1 0 0
848 283 16 0.417 -4.112030400981602 -0.04760966828175488 2.509192585355734 0 0 0
44 15 16 0.417 -1.630699160893704 -4.699634627969508 9.010413456762716 0 0 -1
49 17 15 -0.834 -9.80981322659586 -3.435800588273078 7.773227238057133 1 0 0
433 145 15 -0.834 -2.2689374398792843 -3.7792413354791194 5.5197249625733456 0 0 0
223 75 15 -0.834 -7.8010125233375165 -2.096915688635557 6.952271795713101 0 0 0
573 191 16 0.417 -3.727620319610307 -0.3378816690718844 6.516371259431132 0 0 0
81 27 16 0.417 -7.267772526352341 -0.7548733248669124 6.543202443550421 0 0 0
80 27 16 0.417 -7.483567023400406 -0.7072436833933224 6.645088488735452 0 0 0
225 75 16 0.417 -8.405416625043276 -2.694372807910948 7.392694912060068 0 0 0
827 276 16 0.417 -4.60402822159541 -3.932866197213694 7.7430753960721015 0 0 0
435 145 16 0.417 -3.086073977954817 -3.9526890940477104 5.987095905523854 0 0 0
340 114 15 -0.834 -5.111344351656563 -3.4607176894602047 9.145104759920622 0 0 0
224 75 16 0.417 -8.48531231892126 -2.713014542426171 7.2137824703306395 0 0 0
434 145 16 0.417 -3.0456918011904417 -3.848091155944992 6.074832363844808 0 0 0
828 276 16 0.417 -4.585691677785036 -3.806037748946024 7.74493285472876 0 0 0
45 15 16 0.417 -1.6605231919362526 -4.6962020426941296 9.045262926256312 0 0 -1
826 276 15 -0.834 -4.2590800928958235 -3.904914288889931 6.850628569158369 0 0 0
188 63 16 0.417 -5.115512298344624 -0.38580011498873473 8.440090835182433 0 0 0
372 124 16 0.417 -0.5065153332640089 -0.09396910846196249 7.966566287339247 0 0 0
109 37 15 -0.834 -2.7923314811233686 -0.04258775457371241 5.506049981643414 0 0 0
571 191 15 -0.834 -4.27231981687188 -0.4529195114883395 7.295024330889601 0 0 0
187 63 15 -0.834 -5.898206469187504 -0.3283172942039761 8.988103082223057 0 0 0
341 114 16 0.417 -5.612230637120018 -3.236063428513786 9.929244564463906 0 0 0
189 63 16 0.417 -5.386494076879581 -0.2749834687210598 8.180924164402064 0 0 0
572 191 16 0.417 -3.7171478642350726 -0.5388492862918619 6.520019797322283 0 0 0
642 214 16 0.417 -0.11062730177027354 -2.490002635635992 7.541271385219794 0 0 0
640 214 15 -0.834 -0.4284402517601902 -1.5888680116186946 7.597691553464768 0 0 0
641 214 16 0.417 -0.18332869818892114 -2.463408227816565 7.295480287593193 0 0 0
371 124 16 0.417 -0.37613977154183614 -0.09758490169031134 7.773062595361193 0 0 0
502 168 15 -0.834 -0.6907057241747221 -3.7904885611714425 9.793099530050624 0 0 -1
6 2 16 0.417 -4.0184805705208095 4.083738257704537 -5.669128921978015 0 0 0
655 219 15 -0.834 -1.097100859030114 1.3503832166276084 -8.68234109092025 0 0 1
5 2 16 0.417 -3.9921377030719714 3.9849606282359047 -5.6524331690151906 0 0 0
656 219 16 0.417 -0.48283328910087764 0.6366256304220431 -8.510709770726567 0 0 1
750 250 16 0.417 -7.899289949776489 3.4052497393771275 -7.307498009095984 0 0 0
297 99 16 0.417 -4.522976381733563 3.2037145248146666 -8.478223748275918 0 0 1
296 99 16 0.417 -4.472465808985526 3.1152625281468933 -8.598073285693573 0 0 0
600 200 16 0.417 -7.728914862996902 1.1226003749845734 -7.909809186678202 0 0 0
598 200 15 -0.834 -7.902018794084738 1.929490531343937 -7.424839918885593 0 0 0
232 78 15 -0.834 -4.132585035324526 0.7707875388342866 -6.418566782640409 0 0 1
427 143 15 -0.834 -7.033262469320088 0.33605968222588 -8.960890260415201 0 0 0
749 250 16 0.417 -7.960290913809034 3.4273237585009517 -7.274629291937799 0 0 0
233 78 16 0.417 -4.3901602686577785 1.3521665851240956 -7.134028351426124 0 0 1
4 2 15 -0.834 -3.216972880032805 4.155570276900506 -6.187450694038304 0 0 0
599 200 16 0.417 -7.484708235465232 1.349390993171117 -8.061682355593753 0 0 0
748 250 15 -0.834 -7.536766770565322 4.274822504376405 -7.138229006223206 0 0 0
295 99 15 -0.834 -4.587827844770822 2.377611438645888 -7.999078861118419 0 0 0
90 30 16 0.417 -9.995327403590288 4.592264205164525 -9.305806708286367 1 0 1
234 78 16 0.417 -4.305368607220778 1.5228301504940407 -6.9849673520186855 0 0 1
89 30 16 0.417 -9.999042955866443 4.6975701525205755 -9.454512990358506 1 0 1
88 30 15 -0.834 -9.04728047666251 4.597071941898737 -9.437775459806549 1 0 1
194 65 16 0.417 -2.1206952279782825 4.637750458925957 -6.84838437963194 0 0 0
195 65 16 0.417 -2.1242175586942977 4.639733118996344 -6.851463658476971 0 0 0
709 237 15 -0.834 -4.27871757903275 4.44395283352234 -9.099419973850482 0 0 1
657 219 16 0.417 -0.5596444292231676 0.5747543658725109 -8.521803460705906 0 0 1
885 295 16 0.417 -0.7234848199476619 2.754994603152116 -9.117328531070505 0 0 1
884 295 16 0.417 -0.5925026718644208 2.6191041741502885 -9.21779365290441 0 0 1
764 255 16 0.417 -3.158261994929491 0.6444450065588718 -5.5437415069794405 0 0 0
765 255 16 0.417 -3.019408937413441 0.4367474735016848 -5.707811627102566 0 0 0
429 143 16 0.417 -6.47449272722293 0.05897233801824217 -9.686996892099964 0 0 0
883 295 15 -0.834 -0.3136219278763314 3.4043451633086286 -9.688807415756216 0 0 1
155 52 16 0.417 -8.735079536942091 2.494554329017539 -2.731107692007945 0 0 0
19 7 15 -0.834 -2.290930682041415 0.4648658874761846 -0.24849865178062744 0 0 0
154 52 15 -0.834 -9.092252600767887 2.980220340486061 -3.4746046842772427 0 0 0
115 39 15 -0.834 -5.803562676299747 0.9219276614217159 -3.224246472654807 0 0 0
116 39 16 0.417 -5.0011166445771655 1.389904830457219 -2.9933577837514216 0 0 0
117 39 16 0.417 -5.074822141051291 1.418623979668973 -2.852141836076712 0 0 0
545 182 16 0.417 -9.767199208303714 3.499222609819084 -4.728642786355804 0 0 0
622 208 15 -0.834 -2.262745421196343 3.8364813457256126 -2.8179545396747985 0 0 0
624 208 16 0.417 -1.5263522796832536 4.143964423589076 -3.346548105123699 0 0 0
139 47 15 -0.834 -3.874152779580953 2.1409481483564488 -2.511508444932584 0 0 0
140 47 16 0.417 -3.2763504179823526 2.8643991016094676 -2.6998775337502763 0 0 0
141 47 16 0.417 -3.256991848153504 2.8718927346553977 -2.478885706510386 0 0 0
623 208 16 0.417 -1.5863578250087338 4.1833095213771685 -3.399712125142776 0 0 0
156 52 16 0.417 -8.710616541477826 2.6429266770995286 -2.6641611175625775 0 0 0
363 121 16 0.417 -7.888071707587562 1.9882763432904702 -0.5809420023984466 0 0 0
361 121 15 -0.834 -8.229522169134647 2.261242764591353 -1.4324893064558286 0 0 0
362 121 16 0.417 -8.02263906289615 2.1354861091305257 -0.5064134269897973 0 0 0
408 136 16 0.417 -6.555132825928396 0.137594193536343 -4.122067845201758 0 0 0
228 76 16 0.417 -5.843957841009641 4.3495825115546385 -4.2054368185535225 0 0 0
55 19 15 -0.834 -0.049583915924657426 2.174356430552075 -4.195819979696321 0 0 0
546 182 16 0.417 -9.804653565358787 3.533218787001034 -4.698630800730591 0 0 0
227 76 16 0.417 -5.94171944838985 4.20018474104418 -4.209803796935992 0 0 0
226 76 15 -0.834 -5.232829562922139 3.8589943460305096 -4.755052445100503 0 0 0
277 93 15 -0.834 -0.6440231196228687 4.8483918344260095 -4.235826110893013 0 0 0
407 136 16 0.417 -6.433029048109749 0.1374876206002 -4.214706767835604 0 0 0
763 255 15 -0.834 -2.4366182506873453 0.44160871186634826 -4.948494007878973 0 0 0
263 88 16 0.417 -1.0672307581645282 0.001308388620624175 -4.601059607141653 0 0 0
446 149 16 0.417 -7.350984318775069 1.3783265454378688 1.7054146877029723 0 0 0
865 289 15 -0.834 -0.901009029906674 1.5950956225337594 1.3819398465956527 0 0 0
569 190 16 0.417 -4.829927936509934 1.6903296411978435 4.09164160056186 0 0 0
570 190 16 0.417 -4.81901059911926 1.6594347429459306 4.118613094099747 0 0 0
866 289 16 0.417 -1.546684453058986 1.2125637124334567 0.7877980716531959 0 0 0
462 154 16 0.417 -0.9954302417534833 0.7210648903416208 2.711848857827527 0 0 0
461 154 16 0.417 -0.9704720101683583 1.0110831361578843 2.8321061202288074 0 0 0
849 283 16 0.417 -4.043204335558416 0.011089222536202599 2.5003320338637938 0 0 0
247 83 15 -0.834 -2.1667045228997757 3.5258063248415805 4.290460606151196 0 0 0
288 96 16 0.417 -3.0096304900048687 4.0638919306144485 3.255832517423788 0 0 0
445 149 15 -0.834 -7.570374730533457 1.9018349051682577 0.9346756338165421 0 0 0
736 246 15 -0.834 -6.5453698763594685 4.752082020160792 2.72802532656976 0 0 0
743 248 16 0.417 -4.137888859353339 4.952816805405092 1.305258240356161 0 0 0
568 190 15 -0.834 -4.61123052421893 1.1052515049989573 3.366323109175576 0 0 0
801 267 16 0.417 -7.5331356372129035 4.8314171100334145 1.5344467069935872 0 0 0
460 154 15 -0.834 -1.246708168438905 0.5382916650758881 3.617213534383849 0 0 0
744 248 16 0.417 -4.063301494265373 4.8465371466464005 1.2415082410103104 0 0 0
287 96 16 0.417 -3.14029416429972 4.079829765370458 3.3526725059458373 0 0 0
867 289 16 0.417 -1.378746805483675 1.2369261975122057 0.6338000631545722 0 0 0
286 96 15 -0.834 -3.6109333886187995 4.287827141337677 2.545537019418836 0 0 0
447 149 16 0.417 -7.409924383490808 1.377210940956553 1.7190589768837115 0 0 0
118 40 15 -0.834 -7.402970897943586 0.2965974024811122 2.79527046801031 0 0 0
110 37 16 0.417 -2.1050605112808425 0.29876830962675965 4.933890481487106 0 0 0
111 37 16 0.417 -2.137372712979881 0.1593481814365729 4.8378563443815645 0 0 0
248 83 16 0.417 -1.6803001077509476 3.103686397648611 4.998597159416227 0 0 0
30 10 16 0.417 -9.145555130489083 3.4719462224845685 6.351725864144681 0 0 0
370 124 15 -0.834 -0.4018226913085635 0.8534219868626125 7.878694708941521 0 0 0
627 209 16 0.417 -3.0434107978809637 4.153694701637293 7.515306821213029 0 0 0
398 133 16 0.417 -7.833641274106495 1.4397161823289029 5.966664928164569 0 0 0
311 104 16 0.417 -6.895739479305879 4.454668944360197 8.274870616873901 1 0 0
562 188 15 -0.834 -8.669456204119026 1.8106119492212234 9.040179128118464 0 0 0
312 104 16 0.417 -6.809640724477501 4.3795879734922245 8.159013584070655 1 0 0
368 123 16 0.417 -0.5834851354097345 2.015998099004614 6.84099189576225 0 0 0
369 123 16 0.417 -0.6426997516205321 2.0003324163971725 6.851683692523846 0 0 0
625 209 15 -0.834 -3.744823559377835 3.623474377107006 7.13699689629219 0 0 0
29 10 16 0.417 -9.187053896452607 3.3905677760095476 6.38390764035303 0 0 0
397 133 15 -0.834 -8.209185041275326 2.319370956565056 6.00416429115443 0 0 0
563 188 16 0.417 -7.9631783797133675 2.4448453835460917 8.917087991655132 0 0 0
564 188 16 0.417 -8.075374494949536 2.5510588176505657 8.917552845298097 0 0 0
249 83 16 0.417 -1.6769106609119393 3.2746541104964004 5.073567487142355 0 0 0
310 104 15 -0.834 -6.933823835872131 3.593276393566205 8.690543932924028 1 0 0
79 27 15 -0.834 -7.283052361353509 0.18491586020437104 6.362109492492368 0 0 0
626 209 16 0.417 -3.0987338746604856 4.2502965842236655 7.462410318417393 0 0 0
809 270 16 0.417 -4.3770733033272915 2.9101631147509335 6.03333375523283 0 0 0
810 270 16 0.417 -4.476038609944476 2.968298836445645 6.0629243776969215 0 0 0
28 10 15 -0.834 -9.853265917611088 3.947313560850289 6.786930617901198 0 0 0
367 123 15 -0.834 -0.8882618012183527 2.538155635661926 6.098903937758716 0 0 0
399 133 16 0.417 -7.820458228762916 1.4481357229379395 6.082090965236085 0 0 0
808 270 15 -0.834 -4.887556524871177 2.524335869146196 5.321451695848004 0 0 0
798 266 16 0.417 -6.0947941240381445 9.856674681651295 -8.153942785145981 0 0 1
112 38 15 -0.834 -2.9594477327005015 8.948595434366474 -9.297641730578736 0 0 0
610 204 15 -0.834 -6.465801189993598 8.516487364113104 -8.551572531227634 0 0 1
148 50 15 -0.834 -4.115301998631362 6.811924844836313 -6.2186359986195905 0 0 0
182 61 16 0.417 -6.947429095274272 5.526846856814077 -6.769999883073359 0 0 1
619 207 15 -0.834 -3.815332799709521 6.776406797302496 -9.51970115945407 0 0 0
471 157 16 0.417 -7.868808262659077 8.79548462551606 -5.36072285488381 0 0 0
540 180 16 0.417 -0.467733712521281 5.91890096136261 -8.003742072605815 0 0 0
411 137 16 0.417 -7.945855217453339 5.615036028181442 -9.362417128621832 0 0 0
797 266 16 0.417 -6.059595328399827 9.748127133534513 -7.979866806831323 0 0 1
149 50 16 0.417 -5.040709227400347 6.827991478520796 -6.462757253750981 0 0 0
150 50 16 0.417 -5.050055820944204 6.628221113729733 -6.312017385707823 0 0 0
181 61 15 -0.834 -6.302306404889761 6.1946287509754265 -6.537371636132933 0 0 0
183 61 16 0.417 -6.875029996454779 5.476334749566456 -6.8062085879689 0 0 0
193 65 15 -0.834 -1.4372555856811893 5.08928901898887 -7.3436166873580655 0 0 0
611 204 16 0.417 -6.74358859550643 7.694229088441655 -8.955252325781963 0 0 1
577 193 15 -0.834 -8.659852115861813 7.79200926424282 -6.011607689099896 0 0 0
409 137 15 -0.834 -7.494425005981896 6.455442423040058 -9.283933370767043 0 0 0
710 237 16 0.417 -4.073591048344919 5.314482678749511 -9.440495824293745 0 0 1
410 137 16 0.417 -8.056900072336653 5.681444731815196 -9.311883737585722 1 0 0
42 14 16 0.417 -0.0840599740514661 9.614321682344775 -6.054019703913213 0 0 0
539 180 16 0.417 -0.580294864502677 6.064874700180278 -7.9721550010584386 0 0 1
612 204 16 0.417 -6.893775826383799 7.677621042107871 -8.722957719566491 0 0 1
578 193 16 0.417 -9.329896524323205 7.220916752295289 -6.3872746628249 0 0 0