

14 atoms
28 bonds
108 angles
224 dihedrals
0 impropers

9 atom types
13 bond types
18 angle types
34 dihedral types

0.000000 0.000000 xlo xhi
0.000000 0.000000 ylo yhi
0.000000 0.000000 zlo zhi

Atoms

 1 1 1 0 -7.180 2.930 0.000
 2 1 1 0 -5.978 3.636 0.000
 3 1 1 0 -4.765 2.950 -0.000
 4 1 1 0 -7.170 1.535 -0.000
 5 1 1 0 -5.956 0.849 -0.000
 6 1 1 0 -4.752 1.555 -0.000
 7 1 2 0 -8.123 3.473 0.000
 8 1 2 0 -5.987 4.723 0.000
 9 1 2 0 -3.831 3.508 -0.000
 10 1 5 0 -3.565 0.880 -0.000
 11 1 5 0 -8.347 0.842 -0.000
 12 1 2 0 -5.947 -0.240 -0.000
 13 1 6 0 -9.196 1.396 -0.000
 14 1 6 0 -2.724 1.448 -0.000

Bonds

 1 1 1 2
 2 1 1 4
 3 2 1 7
 4 1 2 1
 5 1 2 3
 6 2 2 8
 7 1 3 2
 8 1 3 6
 9 2 3 9
 10 1 4 1
 11 1 4 5
 12 3 4 11
 13 1 5 4
 14 1 5 6
 15 2 5 12
 16 1 6 5
 17 1 6 3
 18 3 6 10
 19 2 1 7
 20 2 2 8
 21 2 3 9
 22 3 6 10
 23 4 10 14
 24 3 4 11
 25 4 11 13
 26 2 5 12
 27 4 11 13
 28 4 10 14

Angles

 1 1 2 1 4
 2 2 2 1 7
 3 1 2 1 2
 4 1 2 1 4
 5 2 2 1 7
 6 2 4 1 7
 7 1 4 1 2
 8 1 4 1 4
 9 2 4 1 7
 10 2 2 1 7
 11 2 4 1 7
 12 3 7 1 7
 13 1 2 1 4
 14 2 2 1 7
 15 2 4 1 7
 16 1 1 2 1
 17 1 1 2 3
 18 2 1 2 8
 19 1 1 2 3
 20 2 1 2 8
 21 1 1 2 3
 22 2 1 2 8
 23 1 1 2 3
 24 2 1 2 8
 25 2 3 2 8
 26 1 3 2 3
 27 2 3 2 8
 28 2 3 2 8
 29 3 8 2 8
 30 2 3 2 8
 31 1 2 3 2
 32 1 2 3 6
 33 2 2 3 9
 34 1 2 3 6
 35 2 2 3 9
 36 1 2 3 6
 37 2 2 3 9
 38 1 2 3 6
 39 2 2 3 9
 40 2 6 3 9
 41 1 6 3 6
 42 2 6 3 9
 43 2 6 3 9
 44 3 9 3 9
 45 2 6 3 9
 46 1 1 4 1
 47 1 1 4 5
 48 4 1 4 11
 49 1 1 4 5
 50 4 1 4 11
 51 1 1 4 5
 52 4 1 4 11
 53 1 1 4 5
 54 4 1 4 11
 55 4 5 4 11
 56 1 5 4 5
 57 4 5 4 11
 58 4 5 4 11
 59 5 11 4 11
 60 4 5 4 11
 61 1 4 5 4
 62 1 4 5 6
 63 2 4 5 12
 64 1 4 5 6
 65 2 4 5 12
 66 1 4 5 6
 67 2 4 5 12
 68 1 4 5 6
 69 2 4 5 12
 70 2 6 5 12
 71 1 6 5 6
 72 2 6 5 12
 73 2 6 5 12
 74 3 12 5 12
 75 2 6 5 12
 76 1 3 6 5
 77 1 3 6 5
 78 1 3 6 3
 79 4 3 6 10
 80 4 3 6 10
 81 1 5 6 5
 82 1 5 6 3
 83 4 5 6 10
 84 4 5 6 10
 85 1 5 6 3
 86 4 5 6 10
 87 4 5 6 10
 88 4 3 6 10
 89 4 3 6 10
 90 5 10 6 10
 91 6 1 7 1
 92 6 2 8 2
 93 6 3 9 3
 94 7 6 10 6
 95 8 6 10 14
 96 8 6 10 14
 97 8 6 10 14
 98 8 6 10 14
 99 9 14 10 14
 100 7 4 11 4
 101 8 4 11 13
 102 8 4 11 13
 103 8 4 11 13
 104 8 4 11 13
 105 9 13 11 13
 106 6 5 12 5
 107 10 11 13 11
 108 10 10 14 10

Dihedrals

 1 1 4 1 2 3
 2 2 4 1 2 8
 3 1 4 1 2 3
 4 2 4 1 2 8
 5 2 3 2 1 7
 6 3 7 1 2 8
 7 2 3 2 1 7
 8 3 7 1 2 8
 9 1 4 1 2 3
 10 2 4 1 2 8
 11 1 4 1 2 3
 12 2 4 1 2 8
 13 2 3 2 1 7
 14 3 7 1 2 8
 15 2 3 2 1 7
 16 3 7 1 2 8
 17 1 2 1 4 5
 18 4 2 1 4 11
 19 1 2 1 4 5
 20 4 2 1 4 11
 21 2 5 4 1 7
 22 5 7 1 4 11
 23 2 5 4 1 7
 24 5 7 1 4 11
 25 1 2 1 4 5
 26 4 2 1 4 11
 27 1 2 1 4 5
 28 4 2 1 4 11
 29 2 5 4 1 7
 30 5 7 1 4 11
 31 2 5 4 1 7
 32 5 7 1 4 11
 33 1 3 2 1 4
 34 2 3 2 1 7
 35 1 3 2 1 4
 36 2 3 2 1 7
 37 2 4 1 2 8
 38 3 8 2 1 7
 39 2 4 1 2 8
 40 3 8 2 1 7
 41 1 3 2 1 4
 42 2 3 2 1 7
 43 1 3 2 1 4
 44 2 3 2 1 7
 45 2 4 1 2 8
 46 3 8 2 1 7
 47 2 4 1 2 8
 48 3 8 2 1 7
 49 1 1 2 3 6
 50 2 1 2 3 9
 51 1 1 2 3 6
 52 2 1 2 3 9
 53 1 1 2 3 6
 54 2 1 2 3 9
 55 1 1 2 3 6
 56 2 1 2 3 9
 57 2 6 3 2 8
 58 3 8 2 3 9
 59 2 6 3 2 8
 60 3 8 2 3 9
 61 2 6 3 2 8
 62 3 8 2 3 9
 63 2 6 3 2 8
 64 3 8 2 3 9
 65 1 6 3 2 1
 66 1 6 3 2 1
 67 2 6 3 2 8
 68 2 6 3 2 8
 69 2 1 2 3 9
 70 2 1 2 3 9
 71 3 9 3 2 8
 72 3 9 3 2 8
 73 1 6 3 2 1
 74 1 6 3 2 1
 75 2 6 3 2 8
 76 2 6 3 2 8
 77 2 1 2 3 9
 78 2 1 2 3 9
 79 3 9 3 2 8
 80 3 9 3 2 8
 81 1 2 3 6 5
 82 1 2 3 6 5
 83 4 2 3 6 10
 84 4 2 3 6 10
 85 1 2 3 6 5
 86 1 2 3 6 5
 87 4 2 3 6 10
 88 4 2 3 6 10
 89 2 5 6 3 9
 90 2 5 6 3 9
 91 5 9 3 6 10
 92 5 9 3 6 10
 93 2 5 6 3 9
 94 2 5 6 3 9
 95 5 9 3 6 10
 96 5 9 3 6 10
 97 1 5 4 1 2
 98 2 5 4 1 7
 99 1 5 4 1 2
 100 2 5 4 1 7
 101 4 2 1 4 11
 102 5 7 1 4 11
 103 4 2 1 4 11
 104 5 7 1 4 11
 105 1 5 4 1 2
 106 2 5 4 1 7
 107 1 5 4 1 2
 108 2 5 4 1 7
 109 4 2 1 4 11
 110 5 7 1 4 11
 111 4 2 1 4 11
 112 5 7 1 4 11
 113 1 1 4 5 6
 114 2 1 4 5 12
 115 1 1 4 5 6
 116 2 1 4 5 12
 117 1 1 4 5 6
 118 2 1 4 5 12
 119 1 1 4 5 6
 120 2 1 4 5 12
 121 4 6 5 4 11
 122 5 12 5 4 11
 123 4 6 5 4 11
 124 5 12 5 4 11
 125 4 6 5 4 11
 126 5 12 5 4 11
 127 4 6 5 4 11
 128 5 12 5 4 11
 129 6 1 4 11 13
 130 6 1 4 11 13
 131 6 1 4 11 13
 132 6 1 4 11 13
 133 6 5 4 11 13
 134 6 5 4 11 13
 135 6 5 4 11 13
 136 6 5 4 11 13
 137 1 6 5 4 1
 138 1 6 5 4 1
 139 4 6 5 4 11
 140 4 6 5 4 11
 141 2 1 4 5 12
 142 2 1 4 5 12
 143 5 12 5 4 11
 144 5 12 5 4 11
 145 1 6 5 4 1
 146 1 6 5 4 1
 147 4 6 5 4 11
 148 4 6 5 4 11
 149 2 1 4 5 12
 150 2 1 4 5 12
 151 5 12 5 4 11
 152 5 12 5 4 11
 153 1 4 5 6 3
 154 1 4 5 6 3
 155 4 4 5 6 10
 156 4 4 5 6 10
 157 1 4 5 6 3
 158 1 4 5 6 3
 159 4 4 5 6 10
 160 4 4 5 6 10
 161 2 3 6 5 12
 162 2 3 6 5 12
 163 5 12 5 6 10
 164 5 12 5 6 10
 165 2 3 6 5 12
 166 2 3 6 5 12
 167 5 12 5 6 10
 168 5 12 5 6 10
 169 1 3 6 5 4
 170 1 3 6 5 4
 171 2 3 6 5 12
 172 2 3 6 5 12
 173 1 3 6 5 4
 174 1 3 6 5 4
 175 2 3 6 5 12
 176 2 3 6 5 12
 177 4 4 5 6 10
 178 4 4 5 6 10
 179 5 12 5 6 10
 180 5 12 5 6 10
 181 4 4 5 6 10
 182 4 4 5 6 10
 183 5 12 5 6 10
 184 5 12 5 6 10
 185 1 5 6 3 2
 186 1 5 6 3 2
 187 2 5 6 3 9
 188 2 5 6 3 9
 189 1 5 6 3 2
 190 1 5 6 3 2
 191 2 5 6 3 9
 192 2 5 6 3 9
 193 4 2 3 6 10
 194 4 2 3 6 10
 195 5 9 3 6 10
 196 5 9 3 6 10
 197 4 2 3 6 10
 198 4 2 3 6 10
 199 5 9 3 6 10
 200 5 9 3 6 10
 201 6 3 6 10 14
 202 6 3 6 10 14
 203 6 5 6 10 14
 204 6 5 6 10 14
 205 6 5 6 10 14
 206 6 5 6 10 14
 207 6 3 6 10 14
 208 6 3 6 10 14
 209 6 3 6 10 14
 210 6 3 6 10 14
 211 6 5 6 10 14
 212 6 5 6 10 14
 213 6 5 6 10 14
 214 6 5 6 10 14
 215 6 3 6 10 14
 216 6 3 6 10 14
 217 6 1 4 11 13
 218 6 1 4 11 13
 219 6 1 4 11 13
 220 6 1 4 11 13
 221 6 5 4 11 13
 222 6 5 4 11 13
 223 6 5 4 11 13
 224 6 5 4 11 13

