

16 atoms
32 bonds
124 angles
256 dihedrals
0 impropers

9 atom types
13 bond types
18 angle types
34 dihedral types

0.000000 0.000000 xlo xhi
0.000000 0.000000 ylo yhi
0.000000 0.000000 zlo zhi

Atoms

 1 1 1 0 -7.089 2.976 -0.000
 2 1 1 0 -5.870 3.666 -0.000
 3 1 1 0 -4.679 2.933 -0.000
 4 1 1 0 -7.116 1.582 -0.000
 5 1 1 0 -5.919 0.864 -0.000
 6 1 1 0 -4.698 1.539 -0.000
 7 1 2 0 -8.032 3.518 -0.000
 8 1 2 0 -3.722 3.451 0.000
 9 1 2 0 -5.938 -0.224 -0.000
 10 1 3 0 -8.432 0.878 -0.000
 11 1 3 0 -3.407 0.791 -0.000
 12 1 3 0 -5.810 5.170 0.000
 13 1 4 0 -4.769 5.796 0.000
 14 1 4 0 -8.569 -0.329 -0.000
 15 1 4 0 -3.312 -0.420 -0.000
 16 1 4 0 -6.968 5.778 0.000

Bonds

 1 1 1 2
 2 1 1 4
 3 2 1 7
 4 1 2 1
 5 1 2 3
 6 3 2 12
 7 1 3 2
 8 1 3 6
 9 2 3 8
 10 1 4 1
 11 1 4 5
 12 3 4 10
 13 1 5 4
 14 1 5 6
 15 2 5 9
 16 1 6 5
 17 1 6 3
 18 3 6 11
 19 2 1 7
 20 2 3 8
 21 2 5 9
 22 3 4 10
 23 4 10 14
 24 3 6 11
 25 4 11 15
 26 3 2 12
 27 4 12 13
 28 4 12 16
 29 4 12 13
 30 4 10 14
 31 4 11 15
 32 4 12 16

Angles

 1 1 2 1 4
 2 2 2 1 7
 3 1 2 1 2
 4 1 2 1 4
 5 2 2 1 7
 6 2 4 1 7
 7 1 4 1 2
 8 1 4 1 4
 9 2 4 1 7
 10 2 2 1 7
 11 2 4 1 7
 12 3 7 1 7
 13 1 2 1 4
 14 2 2 1 7
 15 2 4 1 7
 16 1 1 2 1
 17 1 1 2 3
 18 4 1 2 12
 19 1 1 2 3
 20 4 1 2 12
 21 1 1 2 3
 22 4 1 2 12
 23 1 1 2 3
 24 4 1 2 12
 25 4 3 2 12
 26 1 3 2 3
 27 4 3 2 12
 28 4 3 2 12
 29 5 12 2 12
 30 4 3 2 12
 31 1 2 3 2
 32 1 2 3 6
 33 2 2 3 8
 34 1 2 3 6
 35 2 2 3 8
 36 1 2 3 6
 37 2 2 3 8
 38 1 2 3 6
 39 2 2 3 8
 40 2 6 3 8
 41 1 6 3 6
 42 2 6 3 8
 43 2 6 3 8
 44 3 8 3 8
 45 2 6 3 8
 46 1 1 4 1
 47 1 1 4 5
 48 4 1 4 10
 49 1 1 4 5
 50 4 1 4 10
 51 1 1 4 5
 52 4 1 4 10
 53 1 1 4 5
 54 4 1 4 10
 55 4 5 4 10
 56 1 5 4 5
 57 4 5 4 10
 58 4 5 4 10
 59 5 10 4 10
 60 4 5 4 10
 61 1 4 5 4
 62 1 4 5 6
 63 2 4 5 9
 64 1 4 5 6
 65 2 4 5 9
 66 1 4 5 6
 67 2 4 5 9
 68 1 4 5 6
 69 2 4 5 9
 70 2 6 5 9
 71 1 6 5 6
 72 2 6 5 9
 73 2 6 5 9
 74 3 9 5 9
 75 2 6 5 9
 76 1 3 6 5
 77 1 3 6 5
 78 1 3 6 3
 79 4 3 6 11
 80 4 3 6 11
 81 1 5 6 5
 82 1 5 6 3
 83 4 5 6 11
 84 4 5 6 11
 85 1 5 6 3
 86 4 5 6 11
 87 4 5 6 11
 88 4 3 6 11
 89 4 3 6 11
 90 5 11 6 11
 91 6 1 7 1
 92 6 3 8 3
 93 6 5 9 5
 94 7 4 10 4
 95 8 4 10 14
 96 8 4 10 14
 97 8 4 10 14
 98 8 4 10 14
 99 9 14 10 14
 100 7 6 11 6
 101 8 6 11 15
 102 8 6 11 15
 103 8 6 11 15
 104 8 6 11 15
 105 9 15 11 15
 106 7 2 12 2
 107 8 2 12 13
 108 8 2 12 16
 109 8 2 12 13
 110 8 2 12 16
 111 8 2 12 13
 112 8 2 12 16
 113 8 2 12 13
 114 8 2 12 16
 115 9 13 12 16
 116 9 13 12 13
 117 9 13 12 16
 118 9 16 12 13
 119 9 16 12 16
 120 9 13 12 16
 121 10 12 13 12
 122 10 10 14 10
 123 10 11 15 11
 124 10 12 16 12

Dihedrals

 1 1 4 1 2 3
 2 2 4 1 2 12
 3 1 4 1 2 3
 4 2 4 1 2 12
 5 3 7 1 2 3
 6 4 7 1 2 12
 7 3 7 1 2 3
 8 4 7 1 2 12
 9 1 4 1 2 3
 10 2 4 1 2 12
 11 1 4 1 2 3
 12 2 4 1 2 12
 13 3 7 1 2 3
 14 4 7 1 2 12
 15 3 7 1 2 3
 16 4 7 1 2 12
 17 1 2 1 4 5
 18 2 2 1 4 10
 19 1 2 1 4 5
 20 2 2 1 4 10
 21 3 7 1 4 5
 22 4 7 1 4 10
 23 3 7 1 4 5
 24 4 7 1 4 10
 25 1 2 1 4 5
 26 2 2 1 4 10
 27 1 2 1 4 5
 28 2 2 1 4 10
 29 3 7 1 4 5
 30 4 7 1 4 10
 31 3 7 1 4 5
 32 4 7 1 4 10
 33 1 3 2 1 4
 34 3 7 1 2 3
 35 1 3 2 1 4
 36 3 7 1 2 3
 37 2 4 1 2 12
 38 4 7 1 2 12
 39 2 4 1 2 12
 40 4 7 1 2 12
 41 1 3 2 1 4
 42 3 7 1 2 3
 43 1 3 2 1 4
 44 3 7 1 2 3
 45 2 4 1 2 12
 46 4 7 1 2 12
 47 2 4 1 2 12
 48 4 7 1 2 12
 49 1 1 2 3 6
 50 3 8 3 2 1
 51 1 1 2 3 6
 52 3 8 3 2 1
 53 1 1 2 3 6
 54 3 8 3 2 1
 55 1 1 2 3 6
 56 3 8 3 2 1
 57 2 6 3 2 12
 58 4 8 3 2 12
 59 2 6 3 2 12
 60 4 8 3 2 12
 61 2 6 3 2 12
 62 4 8 3 2 12
 63 2 6 3 2 12
 64 4 8 3 2 12
 65 5 1 2 12 13
 66 5 1 2 12 16
 67 5 1 2 12 13
 68 5 1 2 12 16
 69 5 1 2 12 13
 70 5 1 2 12 16
 71 5 1 2 12 13
 72 5 1 2 12 16
 73 5 3 2 12 13
 74 5 3 2 12 16
 75 5 3 2 12 13
 76 5 3 2 12 16
 77 5 3 2 12 13
 78 5 3 2 12 16
 79 5 3 2 12 13
 80 5 3 2 12 16
 81 1 6 3 2 1
 82 1 6 3 2 1
 83 2 6 3 2 12
 84 2 6 3 2 12
 85 3 8 3 2 1
 86 3 8 3 2 1
 87 4 8 3 2 12
 88 4 8 3 2 12
 89 1 6 3 2 1
 90 1 6 3 2 1
 91 2 6 3 2 12
 92 2 6 3 2 12
 93 3 8 3 2 1
 94 3 8 3 2 1
 95 4 8 3 2 12
 96 4 8 3 2 12
 97 1 2 3 6 5
 98 1 2 3 6 5
 99 2 2 3 6 11
 100 2 2 3 6 11
 101 1 2 3 6 5
 102 1 2 3 6 5
 103 2 2 3 6 11
 104 2 2 3 6 11
 105 3 8 3 6 5
 106 3 8 3 6 5
 107 4 8 3 6 11
 108 4 8 3 6 11
 109 3 8 3 6 5
 110 3 8 3 6 5
 111 4 8 3 6 11
 112 4 8 3 6 11
 113 1 5 4 1 2
 114 3 7 1 4 5
 115 1 5 4 1 2
 116 3 7 1 4 5
 117 2 2 1 4 10
 118 4 7 1 4 10
 119 2 2 1 4 10
 120 4 7 1 4 10
 121 1 5 4 1 2
 122 3 7 1 4 5
 123 1 5 4 1 2
 124 3 7 1 4 5
 125 2 2 1 4 10
 126 4 7 1 4 10
 127 2 2 1 4 10
 128 4 7 1 4 10
 129 1 1 4 5 6
 130 3 9 5 4 1
 131 1 1 4 5 6
 132 3 9 5 4 1
 133 1 1 4 5 6
 134 3 9 5 4 1
 135 1 1 4 5 6
 136 3 9 5 4 1
 137 2 6 5 4 10
 138 4 9 5 4 10
 139 2 6 5 4 10
 140 4 9 5 4 10
 141 2 6 5 4 10
 142 4 9 5 4 10
 143 2 6 5 4 10
 144 4 9 5 4 10
 145 5 1 4 10 14
 146 5 1 4 10 14
 147 5 1 4 10 14
 148 5 1 4 10 14
 149 5 5 4 10 14
 150 5 5 4 10 14
 151 5 5 4 10 14
 152 5 5 4 10 14
 153 1 6 5 4 1
 154 1 6 5 4 1
 155 2 6 5 4 10
 156 2 6 5 4 10
 157 3 9 5 4 1
 158 3 9 5 4 1
 159 4 9 5 4 10
 160 4 9 5 4 10
 161 1 6 5 4 1
 162 1 6 5 4 1
 163 2 6 5 4 10
 164 2 6 5 4 10
 165 3 9 5 4 1
 166 3 9 5 4 1
 167 4 9 5 4 10
 168 4 9 5 4 10
 169 1 4 5 6 3
 170 1 4 5 6 3
 171 2 4 5 6 11
 172 2 4 5 6 11
 173 1 4 5 6 3
 174 1 4 5 6 3
 175 2 4 5 6 11
 176 2 4 5 6 11
 177 3 9 5 6 3
 178 3 9 5 6 3
 179 4 9 5 6 11
 180 4 9 5 6 11
 181 3 9 5 6 3
 182 3 9 5 6 3
 183 4 9 5 6 11
 184 4 9 5 6 11
 185 1 3 6 5 4
 186 1 3 6 5 4
 187 3 9 5 6 3
 188 3 9 5 6 3
 189 1 3 6 5 4
 190 1 3 6 5 4
 191 3 9 5 6 3
 192 3 9 5 6 3
 193 2 4 5 6 11
 194 2 4 5 6 11
 195 4 9 5 6 11
 196 4 9 5 6 11
 197 2 4 5 6 11
 198 2 4 5 6 11
 199 4 9 5 6 11
 200 4 9 5 6 11
 201 1 5 6 3 2
 202 1 5 6 3 2
 203 3 8 3 6 5
 204 3 8 3 6 5
 205 1 5 6 3 2
 206 1 5 6 3 2
 207 3 8 3 6 5
 208 3 8 3 6 5
 209 2 2 3 6 11
 210 2 2 3 6 11
 211 4 8 3 6 11
 212 4 8 3 6 11
 213 2 2 3 6 11
 214 2 2 3 6 11
 215 4 8 3 6 11
 216 4 8 3 6 11
 217 5 3 6 11 15
 218 5 3 6 11 15
 219 5 5 6 11 15
 220 5 5 6 11 15
 221 5 5 6 11 15
 222 5 5 6 11 15
 223 5 3 6 11 15
 224 5 3 6 11 15
 225 5 1 4 10 14
 226 5 1 4 10 14
 227 5 1 4 10 14
 228 5 1 4 10 14
 229 5 5 4 10 14
 230 5 5 4 10 14
 231 5 5 4 10 14
 232 5 5 4 10 14
 233 5 3 6 11 15
 234 5 3 6 11 15
 235 5 5 6 11 15
 236 5 5 6 11 15
 237 5 5 6 11 15
 238 5 5 6 11 15
 239 5 3 6 11 15
 240 5 3 6 11 15
 241 5 1 2 12 13
 242 5 1 2 12 16
 243 5 1 2 12 13
 244 5 1 2 12 16
 245 5 1 2 12 13
 246 5 1 2 12 16
 247 5 1 2 12 13
 248 5 1 2 12 16
 249 5 3 2 12 13
 250 5 3 2 12 16
 251 5 3 2 12 13
 252 5 3 2 12 16
 253 5 3 2 12 13
 254 5 3 2 12 16
 255 5 3 2 12 13
 256 5 3 2 12 16

