

15 atoms
30 bonds
114 angles
240 dihedrals
0 impropers

9 atom types
13 bond types
18 angle types
34 dihedral types

0.000000 0.000000 xlo xhi
0.000000 0.000000 ylo yhi
0.000000 0.000000 zlo zhi

Atoms

 1 1 1 0 -7.053 2.979 -0.000
 2 1 1 0 -5.827 3.643 -0.000
 3 1 1 0 -4.641 2.907 -0.000
 4 1 1 0 -7.099 1.585 -0.000
 5 1 1 0 -5.910 0.853 -0.000
 6 1 1 0 -4.679 1.513 -0.000
 7 1 2 0 -7.979 3.550 -0.000
 8 1 2 0 -3.681 3.419 0.000
 9 1 2 0 -5.942 -0.235 -0.000
 10 1 3 0 -8.424 0.897 -0.000
 11 1 3 0 -3.397 0.747 -0.000
 12 1 3 0 -5.803 5.135 -0.000
 13 1 4 0 -4.791 5.807 0.000
 14 1 4 0 -8.577 -0.308 -0.000
 15 1 4 0 -3.317 -0.464 -0.000

Bonds

 1 1 1 2
 2 1 1 4
 3 2 1 7
 4 1 2 1
 5 1 2 3
 6 3 2 12
 7 1 3 2
 8 1 3 6
 9 2 3 8
 10 1 4 1
 11 1 4 5
 12 3 4 10
 13 1 5 4
 14 1 5 6
 15 2 5 9
 16 1 6 5
 17 1 6 3
 18 3 6 11
 19 2 1 7
 20 2 3 8
 21 2 5 9
 22 3 4 10
 23 4 10 14
 24 3 6 11
 25 4 11 15
 26 3 2 12
 27 4 12 13
 28 4 12 13
 29 4 10 14
 30 4 11 15

Angles

 1 1 2 1 4
 2 2 2 1 7
 3 1 2 1 2
 4 1 2 1 4
 5 2 2 1 7
 6 2 4 1 7
 7 1 4 1 2
 8 1 4 1 4
 9 2 4 1 7
 10 2 2 1 7
 11 2 4 1 7
 12 3 7 1 7
 13 1 2 1 4
 14 2 2 1 7
 15 2 4 1 7
 16 1 1 2 1
 17 1 1 2 3
 18 4 1 2 12
 19 1 1 2 3
 20 4 1 2 12
 21 1 1 2 3
 22 4 1 2 12
 23 1 1 2 3
 24 4 1 2 12
 25 4 3 2 12
 26 1 3 2 3
 27 4 3 2 12
 28 4 3 2 12
 29 5 12 2 12
 30 4 3 2 12
 31 1 2 3 2
 32 1 2 3 6
 33 2 2 3 8
 34 1 2 3 6
 35 2 2 3 8
 36 1 2 3 6
 37 2 2 3 8
 38 1 2 3 6
 39 2 2 3 8
 40 2 6 3 8
 41 1 6 3 6
 42 2 6 3 8
 43 2 6 3 8
 44 3 8 3 8
 45 2 6 3 8
 46 1 1 4 1
 47 1 1 4 5
 48 4 1 4 10
 49 1 1 4 5
 50 4 1 4 10
 51 1 1 4 5
 52 4 1 4 10
 53 1 1 4 5
 54 4 1 4 10
 55 4 5 4 10
 56 1 5 4 5
 57 4 5 4 10
 58 4 5 4 10
 59 5 10 4 10
 60 4 5 4 10
 61 1 4 5 4
 62 1 4 5 6
 63 2 4 5 9
 64 1 4 5 6
 65 2 4 5 9
 66 1 4 5 6
 67 2 4 5 9
 68 1 4 5 6
 69 2 4 5 9
 70 2 6 5 9
 71 1 6 5 6
 72 2 6 5 9
 73 2 6 5 9
 74 3 9 5 9
 75 2 6 5 9
 76 1 3 6 5
 77 1 3 6 5
 78 1 3 6 3
 79 4 3 6 11
 80 4 3 6 11
 81 1 5 6 5
 82 1 5 6 3
 83 4 5 6 11
 84 4 5 6 11
 85 1 5 6 3
 86 4 5 6 11
 87 4 5 6 11
 88 4 3 6 11
 89 4 3 6 11
 90 5 11 6 11
 91 6 1 7 1
 92 6 3 8 3
 93 6 5 9 5
 94 7 4 10 4
 95 8 4 10 14
 96 8 4 10 14
 97 8 4 10 14
 98 8 4 10 14
 99 9 14 10 14
 100 7 6 11 6
 101 8 6 11 15
 102 8 6 11 15
 103 8 6 11 15
 104 8 6 11 15
 105 9 15 11 15
 106 7 2 12 2
 107 8 2 12 13
 108 8 2 12 13
 109 8 2 12 13
 110 8 2 12 13
 111 9 13 12 13
 112 10 12 13 12
 113 10 10 14 10
 114 10 11 15 11

Dihedrals

 1 1 4 1 2 3
 2 2 4 1 2 12
 3 1 4 1 2 3
 4 2 4 1 2 12
 5 3 7 1 2 3
 6 4 7 1 2 12
 7 3 7 1 2 3
 8 4 7 1 2 12
 9 1 4 1 2 3
 10 2 4 1 2 12
 11 1 4 1 2 3
 12 2 4 1 2 12
 13 3 7 1 2 3
 14 4 7 1 2 12
 15 3 7 1 2 3
 16 4 7 1 2 12
 17 1 2 1 4 5
 18 2 2 1 4 10
 19 1 2 1 4 5
 20 2 2 1 4 10
 21 3 7 1 4 5
 22 4 7 1 4 10
 23 3 7 1 4 5
 24 4 7 1 4 10
 25 1 2 1 4 5
 26 2 2 1 4 10
 27 1 2 1 4 5
 28 2 2 1 4 10
 29 3 7 1 4 5
 30 4 7 1 4 10
 31 3 7 1 4 5
 32 4 7 1 4 10
 33 1 3 2 1 4
 34 3 7 1 2 3
 35 1 3 2 1 4
 36 3 7 1 2 3
 37 2 4 1 2 12
 38 4 7 1 2 12
 39 2 4 1 2 12
 40 4 7 1 2 12
 41 1 3 2 1 4
 42 3 7 1 2 3
 43 1 3 2 1 4
 44 3 7 1 2 3
 45 2 4 1 2 12
 46 4 7 1 2 12
 47 2 4 1 2 12
 48 4 7 1 2 12
 49 1 1 2 3 6
 50 3 8 3 2 1
 51 1 1 2 3 6
 52 3 8 3 2 1
 53 1 1 2 3 6
 54 3 8 3 2 1
 55 1 1 2 3 6
 56 3 8 3 2 1
 57 2 6 3 2 12
 58 4 8 3 2 12
 59 2 6 3 2 12
 60 4 8 3 2 12
 61 2 6 3 2 12
 62 4 8 3 2 12
 63 2 6 3 2 12
 64 4 8 3 2 12
 65 5 1 2 12 13
 66 5 1 2 12 13
 67 5 1 2 12 13
 68 5 1 2 12 13
 69 5 3 2 12 13
 70 5 3 2 12 13
 71 5 3 2 12 13
 72 5 3 2 12 13
 73 1 6 3 2 1
 74 1 6 3 2 1
 75 2 6 3 2 12
 76 2 6 3 2 12
 77 3 8 3 2 1
 78 3 8 3 2 1
 79 4 8 3 2 12
 80 4 8 3 2 12
 81 1 6 3 2 1
 82 1 6 3 2 1
 83 2 6 3 2 12
 84 2 6 3 2 12
 85 3 8 3 2 1
 86 3 8 3 2 1
 87 4 8 3 2 12
 88 4 8 3 2 12
 89 1 2 3 6 5
 90 1 2 3 6 5
 91 2 2 3 6 11
 92 2 2 3 6 11
 93 1 2 3 6 5
 94 1 2 3 6 5
 95 2 2 3 6 11
 96 2 2 3 6 11
 97 3 8 3 6 5
 98 3 8 3 6 5
 99 4 8 3 6 11
 100 4 8 3 6 11
 101 3 8 3 6 5
 102 3 8 3 6 5
 103 4 8 3 6 11
 104 4 8 3 6 11
 105 1 5 4 1 2
 106 3 7 1 4 5
 107 1 5 4 1 2
 108 3 7 1 4 5
 109 2 2 1 4 10
 110 4 7 1 4 10
 111 2 2 1 4 10
 112 4 7 1 4 10
 113 1 5 4 1 2
 114 3 7 1 4 5
 115 1 5 4 1 2
 116 3 7 1 4 5
 117 2 2 1 4 10
 118 4 7 1 4 10
 119 2 2 1 4 10
 120 4 7 1 4 10
 121 1 1 4 5 6
 122 3 9 5 4 1
 123 1 1 4 5 6
 124 3 9 5 4 1
 125 1 1 4 5 6
 126 3 9 5 4 1
 127 1 1 4 5 6
 128 3 9 5 4 1
 129 2 6 5 4 10
 130 4 9 5 4 10
 131 2 6 5 4 10
 132 4 9 5 4 10
 133 2 6 5 4 10
 134 4 9 5 4 10
 135 2 6 5 4 10
 136 4 9 5 4 10
 137 5 1 4 10 14
 138 5 1 4 10 14
 139 5 1 4 10 14
 140 5 1 4 10 14
 141 5 5 4 10 14
 142 5 5 4 10 14
 143 5 5 4 10 14
 144 5 5 4 10 14
 145 1 6 5 4 1
 146 1 6 5 4 1
 147 2 6 5 4 10
 148 2 6 5 4 10
 149 3 9 5 4 1
 150 3 9 5 4 1
 151 4 9 5 4 10
 152 4 9 5 4 10
 153 1 6 5 4 1
 154 1 6 5 4 1
 155 2 6 5 4 10
 156 2 6 5 4 10
 157 3 9 5 4 1
 158 3 9 5 4 1
 159 4 9 5 4 10
 160 4 9 5 4 10
 161 1 4 5 6 3
 162 1 4 5 6 3
 163 2 4 5 6 11
 164 2 4 5 6 11
 165 1 4 5 6 3
 166 1 4 5 6 3
 167 2 4 5 6 11
 168 2 4 5 6 11
 169 3 9 5 6 3
 170 3 9 5 6 3
 171 4 9 5 6 11
 172 4 9 5 6 11
 173 3 9 5 6 3
 174 3 9 5 6 3
 175 4 9 5 6 11
 176 4 9 5 6 11
 177 1 3 6 5 4
 178 1 3 6 5 4
 179 3 9 5 6 3
 180 3 9 5 6 3
 181 1 3 6 5 4
 182 1 3 6 5 4
 183 3 9 5 6 3
 184 3 9 5 6 3
 185 2 4 5 6 11
 186 2 4 5 6 11
 187 4 9 5 6 11
 188 4 9 5 6 11
 189 2 4 5 6 11
 190 2 4 5 6 11
 191 4 9 5 6 11
 192 4 9 5 6 11
 193 1 5 6 3 2
 194 1 5 6 3 2
 195 3 8 3 6 5
 196 3 8 3 6 5
 197 1 5 6 3 2
 198 1 5 6 3 2
 199 3 8 3 6 5
 200 3 8 3 6 5
 201 2 2 3 6 11
 202 2 2 3 6 11
 203 4 8 3 6 11
 204 4 8 3 6 11
 205 2 2 3 6 11
 206 2 2 3 6 11
 207 4 8 3 6 11
 208 4 8 3 6 11
 209 5 3 6 11 15
 210 5 3 6 11 15
 211 5 5 6 11 15
 212 5 5 6 11 15
 213 5 5 6 11 15
 214 5 5 6 11 15
 215 5 3 6 11 15
 216 5 3 6 11 15
 217 5 1 4 10 14
 218 5 1 4 10 14
 219 5 1 4 10 14
 220 5 1 4 10 14
 221 5 5 4 10 14
 222 5 5 4 10 14
 223 5 5 4 10 14
 224 5 5 4 10 14
 225 5 3 6 11 15
 226 5 3 6 11 15
 227 5 5 6 11 15
 228 5 5 6 11 15
 229 5 5 6 11 15
 230 5 5 6 11 15
 231 5 3 6 11 15
 232 5 3 6 11 15
 233 5 1 2 12 13
 234 5 1 2 12 13
 235 5 1 2 12 13
 236 5 1 2 12 13
 237 5 3 2 12 13
 238 5 3 2 12 13
 239 5 3 2 12 13
 240 5 3 2 12 13

