Random packing of 249 x 'MPD-L.lmps', 102 x 'TMC-L.lmps', 98 x 'TMC-C.lmps'

6690 atoms
6690 bonds
9486 angles
16176 dihedrals
0 impropers

14 atom types
18 bond types
23 angle types
42 dihedral types

0.000000 65.000000 xlo xhi
0.000000 65.000000 ylo yhi
0.000000 65.000000 zlo zhi

Masses # id, mass [g/mol]

 1  12.0100000 # CA (carbon aromatic)
 2   1.0080000 # HA (hydrogen aromatic)
 3  12.0100000 # C  (carbon in carboxyl)
 4  16.0000000 # O  (oxygen)
 5  14.0100000 # N (nitrogen with 1 hydrogen)
 6   1.0080000 # HN (hydrogen on nitrogen)
 7  16.0000000 # OH (protonated carboxyl oxygen)
 8  14.0100000 # NH (nitrogen with 2 hydrogens)
 9   1.0080000 # HO (hydrogen on oxygen)
 10 12.0100000 # LC (crosslinked carbon)
 11 14.0100000 # LN (crosslinked nitrogen)
 12 12.0100000 # CT (terminated carbon on carboxyl group)
 13  1.0080000 # H (free hydrogen for termination)
 14 16.0000000 # O (reactive oxygen in free hydroxyl)


Pair Coeffs # id, epsilon [kcal/mol], sigma [Angstroms]

 1  0.0860000 3.3996695 # CA
 2  0.0150000 2.5996425 # HA
 3  0.0860000 3.3996695 # C
 4  0.2100000 2.9599219 # O
 5  0.1700000 3.2499985 # N
 6  0.0157000 1.0690785 # HN
 7  0.2104000 3.0664734 # OH
 8  0.1700000 3.2499985 # NH
 9  0.0000000 0.0000000 # HO
 10 0.0860000 3.3996695 # LC
 11 0.1700000 3.2499985 # LN
 12 0.0860000 3.3996695 # CT
 13 0.0157000 1.0690785 # HN
 14 0.2104000 3.0664734 # OH


Bond Coeffs # id, K [kcal/mol/Ang^2], r0 [Ang]

 1  harmonic    4.61100000e+02    1.39840000e+00 # CA-CA
 2  harmonic    3.45900000e+02    1.49060000e+00 # CA-C
 3  harmonic    3.45800000e+02    1.08600000e+00 # CA-HA
 4  harmonic    6.37700000e+02    1.21830000e+00 # C-O
 5  harmonic    4.27600000e+02    1.37890000e+00 # LC-LN
 6  harmonic    3.84200000e+02    1.41210000e+00 # N-CA
 7  harmonic    4.03200000e+02    1.01290000e+00 # N-HN
 8  harmonic    4.17900000e+02    1.38590000e+00 # CA-NH
 9  harmonic    4.04600000e+02    1.01210000e+00 # NH-HN 
 10 harmonic    3.45900000e+02    1.49060000e+00 # CA-LC
 11 harmonic    6.37700000e+02    1.21830000e+00 # LC-O
 12 harmonic    3.84200000e+02    1.41210000e+00 # LN-CA
 13 harmonic    4.03200000e+02    1.01290000e+00 # LN-HN
 14 harmonic    4.00100000e+02    1.35130000e+00 # CT-OH
 15 harmonic    3.71400000e+02    9.73000000e-01 # OH-HO
 16 harmonic    3.45900000e+02    1.49060000e+00 # CA-CT
 17 harmonic    6.37700000e+02    1.21830000e+00 # CT-O
 18 harmonic    3.71400000e+02    9.73000000e-01 # O-HO


Angle Coeffs # id, K [kcal/mol/rad^2], theta0 [degrees], K_UB [kcal/mol/Ang^2], r_UB [Ang]

 1  harmonic    6.66000000e+01    1.20020052e+02 # CA-CA-CA
 2  harmonic    4.82000000e+01    1.19880051e+02 # CA-CA-HA
 3  harmonic    6.87000000e+01    1.22600053e+02 # CA-C-O
 4  harmonic    6.43000000e+01    1.20330052e+02 # CA-CA-C
 5  harmonic    6.77000000e+01    1.15250050e+02 # CA-LC-LN (TMC-side)
 6  harmonic    6.38000000e+01    1.23710053e+02 # LC-LN-CA (MPD-side)
 7  harmonic    4.83000000e+01    1.17550051e+02 # LC-LN-HN
 8  harmonic    7.42000000e+01    1.23050053e+02 # O-LC-LN
 9  harmonic    6.79000000e+01    1.20190052e+02 # N-CA-CA
 10 harmonic    4.76000000e+01    1.16000050e+02 # CA-N-HN
 11 harmonic    6.83000000e+01    1.20950052e+02 # CA-CA-NH
 12 harmonic    4.84000000e+01    1.16070050e+02 # CA-NH-HN
 13 harmonic    7.79000000e+01    1.30250056e+02 # O-C-O (does not exist in protonated monomers)
 14 harmonic    4.01000000e+01    1.15120050e+02 # HN-NH-HN
 15 harmonic    6.87000000e+01    1.22600053e+02 # CA-LC-O
 16 harmonic    6.43000000e+01    1.20330052e+02 # CA-CA-LC
 17 harmonic    6.79000000e+01    1.20190052e+02 # LN-CA-CA
 18 harmonic    4.76000000e+01    1.16000050e+02 # CA-LN-HN
 19 harmonic    6.92000000e+01    1.13450049e+02 # CA-CT-OH
 20 harmonic    4.99000000e+01    1.06550046e+02 # CT-OH-HO
 21 harmonic    7.59000000e+01    1.22100052e+02 # O-CT-OH
 22 harmonic    6.87000000e+01    1.22600053e+02 # CA-CT-O
 23 harmonic    6.43000000e+01    1.20330052e+02 # CA-CA-CT


Dihedral Coeffs # id, K [kcal/mol], n, d [degrees], weighting factor for 1-4 interactions

 1  charmm    3.62500000e+00         2       180         0 # CA-CA-CA-CA
 2  charmm    1.10000000e+00         2       180         0 # CA-CA-CA-HA (improper)
 3  charmm    1.00000000e+00         2       180         0 # CA-CA-C-O
 4  charmm    2.50000000e+00         2       180         0 # CA-LC-LN-CA
 5  charmm    1.05000000e+01         2       180         0 # CA-LC-LN-O
 6  charmm    4.50000000e-01         2       180         0 # LC-LN-CA-CA
 7  multi/harmonic    2.00000000e+00    2.00000000e+00    0.00000000e+00    0.00000000e+00    0.00000000e+00 # O-LC-LN-HN
 8  charmm    1.05000000e+00         2       180         0 # CA-CA-NH-HN
 9  charmm    3.62500000e+00         2       180         0 # CA-CA-CA-C
 10 charmm    3.62500000e+00         2       180         0 # CA-CA-CA-LC
 11 charmm    3.62500000e+00         2       180         0 # CA-CA-CA-HA
 12 charmm    3.62500000e+00         2       180         0 # C-CA-CA-HA
 13 charmm    3.62500000e+00         2       180         0 # LC-CA-CA-HA
 14 charmm    3.62500000e+00         2       180         0 # N-CA-CA-CA
 15 charmm    3.62500000e+00         2       180         0 # LN-CA-CA-CA
 16 charmm    3.62500000e+00         2       180         0 # N-CA-CA-HA
 17 charmm    3.62500000e+00         2       180         0 # LN-CA-CA-HA
 18 charmm    3.62500000e+00         2       180         0 # CA-CA-CA-NH
 19 charmm    3.62500000e+00         2       180         0 # HA-CA-CA-HA
 20 charmm    3.62500000e+00         2       180         0 # HA-CA-CA-NH
 21 charmm    1.10000000e+00         2       180         0 # CA-O-OH-CT (improper) (changed from CA-O-O-C in unprotonated)
 22 charmm    1.10000000e+00         2       180         0 # CA-CA-CA-C (improper)
 23 charmm    1.10000000e+00         2       180         0 # CA-CA-CA-LC (improper)
 24 charmm    1.10000000e+00         2       180         0 # LC-CA-LN-HN (improper)
 25 charmm    1.10000000e+00         2       180         0 # CA-CA-CA-N (improper)
 26 charmm    1.10000000e+00         2       180         0 # CA-CA-CA-LN (improper)
 27 charmm    1.10000000e+00         2       180         0 # CA-CA-CA-NH (improper)
 28 charmm    1.10000000e+00         2       180         0 # CA-HN-NH-HN (improper)
 29 charmm    1.00000000e+00         2       180         0 # CA-CA-LC-O
 30 charmm    1.00000000e+00         2       180         0 # CA-CA-LC-LN
 31 charmm    2.50000000e+00         2       180         0 # CA-LC-LN-HN
 32 charmm    2.50000000e+00         2       180         0 # O-LC-LN-CA
 33 charmm    2.50000000e+00         2       180         0 # O-LC-LN-HN
 34 charmm    4.50000000e-01         2       180         0 # HN-LN-CA-CA
 35 charmm    2.30000000e+00         2       180         0 # CA-CT-OH-HO
 36 multi/harmonic    1.90000000e+00    1.90000000e+00    0.00000000e+00    0.00000000e+00    0.00000000e+00 # O-CT-OH-HO
 37 charmm    4.50000000e-01         2       180         0 # CA-CA-N-HN
 38 charmm    1.00000000e+00         2       180         0 # CA-CA-CT-OH
 39 charmm    1.00000000e+00         2       180         0 # CA-CA-CT-O
 40 charmm    3.62500000e+00         2       180         0 # CA-CA-CA-CT
 41 charmm    3.62500000e+00         2       180         0 # CT-CA-CA-HA
 42 charmm    1.10000000e+00         2       180         0 # CA-CA-CA-CT (improper)


Atoms

5096 344 12 0 3.98162 12.8622 12.3907
5097 344 4 0 3.47449 11.7293 12.2941
5086 344 1 0 5.4809 13.0844 12.4048
5087 344 1 0 6.27511 12.1302 12.9699
5092 344 2 0 5.83703 11.3032 13.4564
5090 344 1 0 7.68559 12.2187 13.0431
3161 226 5 0 19.4593 13.6934 0.940636
6334 426 1 0 4.42703 0.980033 3.77236
3760 266 1 0 4.37439 15.6354 3.60647
6344 426 4 0 5.43274 3.11113 2.8489
2481 178 1 0 8.10766 11.4015 9.64866
5089 344 1 0 8.30615 13.3969 12.601
5088 344 1 0 7.49247 14.4218 12.0769
5085 344 1 0 6.08998 14.2512 12.0072
5093 344 2 0 9.37048 13.5499 12.6211
2487 178 2 0 7.18163 11.1972 9.09667
2484 178 1 0 8.7575 10.3292 10.3091
2488 178 5 0 8.27033 9.02258 10.2506
2486 178 2 0 8.18409 13.5499 9.16352
2480 178 1 0 8.6757 12.6837 9.59549
5095 344 3 0 8.35344 11.0428 13.6011
5099 344 4 0 7.81726 9.97658 13.7598
6340 426 3 0 5.05598 1.91144 2.75562
1955 140 2 0 18.375 15.269 15.2209
2492 178 6 0 8.47861 8.41049 11.0659
5233 352 4 0 10.3441 8.11873 12.8741
6331 426 1 0 4.19276 1.49301 5.07391
5091 344 2 0 5.49724 15.0505 11.5015
2772 198 6 0 14.9271 15.1987 0.815571
3771 266 4 0 5.86997 13.8283 4.02365
140 10 6 0 29.1931 1.54813 15.2016
6090 409 4 0 16.9462 15.6111 0.803086
6337 426 2 0 4.37994 2.52064 5.27368
5435 366 1 0 20.4112 0.0275415 3.40673
6343 426 4 0 3.02988 0.534413 8.35976
3742 265 1 0 0.249954 0.760346 6.79839
277 20 5 0 27.7932 16.062 5.14973
3751 265 3 0 0.886278 2.72544 5.4007
3770 266 12 0 5.09081 14.4097 3.18647
2767 198 2 0 12.169 15.1185 3.32384
5436 366 1 0 19.2423 0.810528 3.22409
5232 352 3 0 11.1277 7.55452 13.6284
6342 426 3 0 3.61942 1.21112 7.48864
3774 266 7 0 4.93903 13.9904 1.91514
18 2 1 0 10.7471 11.6045 16.1338
2764 198 1 0 13.8886 16.0369 2.40311
3755 265 4 0 0.695145 3.75111 4.78938
3765 266 2 0 2.87221 15.5196 2.06892
5431 366 1 0 20.2305 0.219891 5.88503
3775 266 9 0 4.41577 14.747 1.43444
6332 426 1 0 3.7932 0.622302 6.1236
3748 265 2 0 1.30205 0.404331 6.53988
5100 344 7 0 3.2432 14.0251 12.3872
3153 226 1 0 21.677 15.9297 3.70471
1951 140 1 0 17.5664 11.9288 15.4624
5445 366 4 0 17.6018 1.6526 1.64594
1036 74 6 0 21.8235 1.42972 3.13714
2479 178 1 0 9.97208 12.8452 10.1217
2483 178 1 0 10.0497 10.5896 10.8602
2535 182 1 0 31.3156 15.7527 7.44166
16 2 1 0 10.3435 13.9289 15.5692
1952 140 1 0 17.8354 13.1618 14.8103
2485 178 2 0 10.4625 13.8763 10.1031
2482 178 1 0 10.5816 11.867 10.8096
3155 226 1 0 19.9899 15.8012 1.98915
2490 178 2 0 10.5598 9.76205 11.3429
5442 366 3 0 18.371 1.63358 6.86804
26 2 2 0 12.808 10.8561 15.8639
19 2 1 0 12.1009 11.6506 15.8047
24 2 5 0 13.9422 13.0026 15.0405
20 2 1 0 12.5893 12.8917 15.3843
5227 352 2 0 12.7074 9.46404 12.5336
28 2 6 0 14.5562 12.165 15.1441
5229 352 2 0 16.1767 8.8624 15.1195
5443 366 4 0 18.6486 1.45299 8.03861
5222 352 1 0 12.4509 7.99089 14.0751
2489 178 5 0 11.8303 12.1101 11.4036
5221 352 1 0 13.145 9.01362 13.4244
5230 352 3 0 15.224 10.2898 12.8957
5224 352 1 0 14.5083 9.32396 13.7852
5234 352 4 0 16.4151 10.4558 12.8837
5225 352 1 0 15.1176 8.64675 14.8177
2491 178 6 0 12.0092 11.5145 12.2211
5433 366 1 0 18.6194 1.24921 4.3749
5438 366 2 0 17.6825 1.75915 4.2616
5432 366 1 0 19.062 1.00609 5.69264
136 10 5 0 28.5699 2.29557 15.5167
5441 366 3 0 18.7464 1.20507 1.85543
3158 226 2 0 22.6281 14.0082 4.2877
5437 366 2 0 20.6409 0.0125461 6.90866
17 2 1 0 11.7328 14.02 15.329
5226 352 1 0 14.434 7.56494 15.4287
5223 352 1 0 13.1033 7.29789 15.0792
2768 198 5 0 14.093 15.0352 1.3667
1960 140 6 0 17.1751 12.4858 12.8937
1958 140 2 0 17.2053 11.0471 14.9704
3157 226 2 0 21.2163 12.7503 2.55902
23 2 2 0 12.1655 14.9184 14.9657
2761 198 1 0 12.8409 15.9517 3.3568
1949 140 1 0 18.343 14.2294 15.6506
1032 74 5 0 22.3692 2.13637 2.6033
1956 140 5 0 17.7015 13.2228 13.4065
3151 226 1 0 21.0612 13.7794 2.7645
27 2 6 0 10.7368 9.60293 15.9068
5228 352 2 0 12.5864 6.43771 15.5581
2881 206 5 0 0.720251 11.9726 0.937283
1031 74 2 0 24.3659 3.85102 2.4264
3927 275 7 0 27.6605 8.60432 2.22461
275 20 2 0 29.8719 15.7122 0.204492
2539 182 1 0 30.685 13.6568 6.41545
1768 127 1 0 23.3315 9.37888 5.14954
2547 182 6 0 28.2923 14.4021 7.5498
1028 74 1 0 22.5857 3.12261 3.53225
15 2 1 0 9.83571 12.7276 16.0312
3925 275 4 0 25.2529 14.4276 3.12876
2545 182 5 0 29.0894 14.9697 7.84222
1766 127 1 0 21.6845 8.33593 6.64238
3152 226 1 0 21.8281 14.5027 3.68661
3918 275 2 0 26.6607 10.8836 3.22994
276 20 5 0 29.6062 13.4075 1.6194
3914 275 1 0 25.0761 10.1689 0.307167
3913 275 1 0 26.0211 10.0031 1.3116
1776 127 2 0 24.9167 10.6037 6.22817
1773 127 2 0 22.0907 8.61201 8.70431
1772 127 2 0 20.7389 7.68857 6.85937
3924 275 4 0 26.4242 7.81043 0.59392
3921 275 3 0 25.5874 13.233 3.20446
1767 127 1 0 22.5227 8.71208 7.7114
1771 127 2 0 21.7066 8.1629 4.49403
1765 127 1 0 22.1798 8.56053 5.36496
271 20 1 0 28.6473 14.714 3.30748
3923 275 12 0 26.7114 8.6914 1.34071
1769 127 1 0 24.0494 9.90252 6.28305
6233 419 2 0 27.3917 12.1887 5.04917
6240 419 4 0 25.5745 13.5435 6.2547
278 20 2 0 28.4695 13.8025 3.86815
1775 127 5 0 23.921 9.43384 3.85078
2546 182 2 0 29.9977 12.8187 6.28368
280 20 6 0 29.4262 12.7265 2.3295
3928 275 9 0 27.5738 9.54784 2.62714
6227 419 1 0 28.3963 10.411 5.71743
1023 74 1 0 23.1684 5.19589 5.29327
6232 419 2 0 29.1832 8.73177 6.76422
6237 419 3 0 29.0899 10.0673 4.39916
6230 419 1 0 27.4546 11.1538 8.28428
6231 419 1 0 27.1312 11.9048 7.17601
1777 127 6 0 24.9452 9.62123 3.85631
6235 419 3 0 28.3936 8.97396 9.29619
269 20 1 0 29.3707 15.827 1.2056
1035 74 6 0 20.8918 3.83024 7.13693
1033 74 5 0 21.3248 4.60121 6.7152
1027 74 1 0 21.8038 3.28553 4.72055
1026 74 1 0 22.065 4.36431 5.58388
1778 127 6 0 25.1196 10.6304 8.60663
1034 74 2 0 21.041 2.58341 4.914
1030 74 2 0 24.7801 5.6407 3.89099
2540 182 1 0 32.0415 13.4844 6.00106
6228 419 1 0 27.6571 11.572 5.90444
6238 419 4 0 29.0768 10.9539 3.51721
1774 127 5 0 24.3134 10.0081 8.74703
1025 74 1 0 23.6705 3.99114 3.27965
6236 419 3 0 26.1611 13.0911 7.24089
3163 226 6 0 18.6353 14.1556 0.560932
2538 182 1 0 30.308 14.8251 7.13623
1770 127 1 0 23.6426 9.56367 7.55209
1029 74 2 0 23.4654 5.96402 5.96317
2544 182 5 0 32.3838 12.2878 5.34103
2548 182 6 0 31.8295 11.459 5.63027
272 20 1 0 29.242 14.6716 2.02957
270 20 1 0 28.3066 15.9733 3.83845
279 20 6 0 27.2023 15.2971 5.41217
4590 314 7 0 31.4953 2.21182 15.6602
5098 344 4 0 9.27509 15.9081 11.8106
1024 74 1 0 23.9667 5.00706 4.19314
3154 226 1 0 20.1816 14.3911 1.89721
6226 419 1 0 28.6733 9.68217 6.86355
3915 275 1 0 25.4896 12.1859 2.11897
6234 419 2 0 27.1341 11.4225 9.28846
3912 275 1 0 26.0674 10.9572 2.32497
3916 275 1 0 24.5656 12.4686 1.02657
6229 419 1 0 28.0989 9.87869 8.11256
3920 275 2 0 24.2949 13.5435 0.894496
6239 419 4 0 28.6432 7.80325 9.3502
5094 344 3 0 8.11922 15.6629 11.5432
5101 344 9 0 3.89823 14.7677 12.2455
3766 266 2 0 5.5176 15.8514 5.47502
3917 275 1 0 24.3573 11.3867 0.181379
5969 401 4 0 4.15236 15.7726 0.160858
3759 266 1 0 3.17816 16.0369 2.99159
22 2 2 0 9.6222 14.686 15.436
21 2 2 0 8.76111 12.596 16.2909
4783 326 1 0 1.66905 15.6995 22.0404
2079 149 2 0 5.25133 2.85871 21.5817
2083 149 5 0 2.88996 2.78244 20.3225
3880 273 1 0 2.54649 7.8528 20.9211
3892 273 4 0 3.89737 10.0694 21.9451
3883 273 1 0 2.45717 8.23936 22.2555
6436 433 1 0 3.14865 13.1766 27.3153
3888 273 3 0 3.12579 9.45573 22.6724
3885 273 2 0 3.05751 8.56897 20.3039
3879 273 1 0 2.10202 6.63043 20.4304
3881 273 1 0 1.27022 6.14585 22.7161
3882 273 1 0 1.84488 7.36608 23.1796
2081 149 2 0 3.79813 1.21806 25.2075
3878 273 1 0 1.35958 5.80691 21.3422
3884 273 2 0 1.01921 4.81521 21.0289
6447 433 3 0 4.01123 11.5002 25.6202
6437 433 1 0 4.13631 12.828 26.346
6443 433 2 0 5.81592 13.4704 25.3517
6438 433 1 0 5.1107 13.7701 26.1243
3886 273 2 0 1.82921 7.73674 24.2077
4601 315 3 0 0.503496 15.3861 26.1165
546 39 6 0 14.7232 10.1425 16.9527
6441 433 1 0 5.1436 15.0116 26.7339
4303 298 1 0 29.2225 0.648833 21.9418
6440 433 1 0 4.10072 15.3168 27.5982
6439 433 1 0 3.156 14.364 28.0258
5871 395 1 0 25.1843 15.8931 32.3306
3889 273 12 0 2.42382 6.16832 19.003
1083 78 1 0 5.29344 15.6091 31.5266
2085 149 6 0 2.12793 2.29598 19.8094
3005 215 2 0 13.9701 15.7482 16.8848
2077 149 1 0 2.0705 1.88132 22.395
1090 78 2 0 4.72281 15.2009 30.6913
3893 273 7 0 1.51856 5.3785 18.3584
3890 273 4 0 3.39082 6.64196 18.4297
1950 140 1 0 17.8142 11.7194 16.8231
1659 119 2 0 19.4104 0.247676 32.1833
6445 433 3 0 2.0464 14.8507 28.8896
4787 326 2 0 0.729207 15.148 21.9745
6448 433 4 0 3.04087 10.7968 25.5375
1092 78 6 0 3.20984 14.6438 32.1856
4782 326 1 0 2.59748 15.3825 23.0126
4788 326 3 0 2.47376 14.1186 23.8844
6442 433 2 0 2.27546 12.5926 27.4434
3887 273 3 0 0.658382 5.17232 23.6245
4792 326 4 0 1.57432 13.317 23.927
5880 395 4 0 27.5036 15.1633 32.109
2076 149 1 0 3.13247 2.3876 21.6606
25 2 5 0 10.2326 10.3299 16.4227
542 39 5 0 14.4609 10.7925 17.6704
1995 143 2 0 31.9162 0.665241 26.4952
2073 149 1 0 4.38538 2.51154 22.1934
2999 215 1 0 14.7025 15.7058 17.7307
3894 273 9 0 0.71287 5.36444 18.9217
6449 433 4 0 1.97086 15.9755 29.4206
3627 258 1 0 14.4323 2.73674 32.081
3004 215 2 0 14.3035 13.5971 17.9836
1953 140 2 0 18.1602 12.6455 18.6453
4877 331 4 0 11.2284 2.05789 30.5225
2084 149 2 0 1.0329 1.84836 22.0122
6374 428 4 0 10.2157 3.55166 27.3532
2997 215 1 0 15.9623 14.395 19.2052
3003 215 2 0 16.1757 13.4393 19.695
544 39 2 0 13.3296 8.46451 17.7156
1957 140 5 0 17.7418 10.45 17.4308
6370 428 3 0 11.1127 2.78474 27.0482
3632 258 3 0 14.712 2.15716 29.6566
1656 119 1 0 18.1665 0.652359 30.4588
543 39 5 0 12.1248 7.09698 19.7761
539 39 2 0 12.0788 8.78028 21.8223
540 39 2 0 12.723 11.1928 21.8124
534 39 1 0 12.9005 10.5688 21.0094
535 39 1 0 13.5411 11.0679 19.9052
541 39 2 0 13.9533 12.0934 19.9665
4875 331 12 0 11.6974 7.9907 31.6121
4867 331 1 0 11.2032 4.25702 31.31
536 39 1 0 12.5855 8.42843 19.8145
538 39 1 0 13.7798 10.2456 18.7417
533 39 1 0 12.4597 9.19984 20.9635
5874 395 2 0 23.6133 14.4864 31.8359
537 39 1 0 13.2458 8.96716 18.6644
545 39 6 0 12.6144 6.44231 19.1844
3852 271 2 0 14.2829 5.29233 21.1079
3858 271 4 0 13.3425 3.89618 23.1954
3636 258 4 0 14.0386 1.1889 29.7046
3857 271 4 0 16.153 7.96457 19.1522
6371 428 3 0 16.0917 1.76239 26.0563
4873 331 3 0 11.0467 3.2705 30.2302
6364 428 1 0 12.6173 3.15692 27.0566
3856 271 4 0 17.0178 10.0034 23.6368
4879 331 7 0 12.301 8.22234 30.4669
4880 331 9 0 12.5524 7.31765 30.1058
4870 331 2 0 11.7544 5.884 29.9915
1665 119 6 0 16.8866 2.0843 31.2298
6366 428 1 0 14.9501 2.64085 26.5368
6363 428 1 0 15.2793 3.99622 26.7482
6367 428 2 0 12.3121 5.24653 27.6976
3626 258 1 0 14.9225 3.1142 30.8315
6372 428 3 0 14.6353 6.34007 27.645
6373 428 4 0 15.7335 6.86975 27.7548
3623 258 1 0 15.4722 4.40564 30.6989
3639 258 9 0 16.2749 6.59049 29.6503
3634 258 12 0 16.2094 6.64446 31.6071
3629 258 2 0 16.1564 4.56858 29.8831
3638 258 7 0 16.3655 7.18646 30.3872
6362 428 1 0 14.3656 4.93123 27.2327
6368 428 2 0 16.3089 4.21845 26.6167
6361 428 1 0 12.9948 4.52689 27.3192
1663 119 5 0 17.8715 1.90263 30.949
3851 271 2 0 15.0727 6.7304 24.9903
3849 271 1 0 14.5881 5.85775 23.1735
3854 271 3 0 13.9014 4.76521 23.792
3846 271 1 0 15.1196 6.88137 23.9635
6365 428 1 0 13.6206 2.20002 26.7502
3848 271 1 0 14.7253 5.99493 21.7972
3860 271 9 0 15.6858 8.20963 25.5485
3847 271 1 0 15.3729 7.03412 21.1785
3859 271 7 0 16.2787 9.01439 25.5186
3845 271 1 0 15.7394 8.00059 23.4063
3850 271 2 0 16.3861 8.85122 21.5707
3844 271 1 0 15.9174 7.99857 22.0229
3855 271 12 0 16.4351 9.11975 24.1728
3853 271 3 0 15.4622 7.13598 19.7151
4864 331 1 0 11.559 5.62228 31.0166
4316 298 4 0 30.8896 1.7448 18.8627
1959 140 6 0 17.0231 10.2197 18.0864
6369 428 2 0 13.3162 1.17107 26.5547
3631 258 2 0 14.0024 1.76997 32.1718
1657 119 1 0 17.7291 0.199984 29.1806
1948 140 1 0 18.6293 13.9535 17.0631
4312 298 3 0 30.2098 1.10917 19.6799
6375 428 4 0 16.0247 0.543362 26.046
4876 331 4 0 11.5559 8.86267 32.4325
4865 331 1 0 11.5288 6.56897 31.9823
1664 119 2 0 17.0671 0.915259 28.6285
2086 149 6 0 0.377564 0.690567 24.1092
2998 215 1 0 14.9264 14.4835 18.2894
6460 434 3 0 27.9004 9.05256 21.1909
6458 434 2 0 30.7047 7.70285 25.6888
4317 298 4 0 29.7017 5.71873 22.0372
4311 298 2 0 30.1264 3.59599 20.578
131 10 1 0 27.3927 0.844677 17.0151
3796 268 1 0 28.2567 12.4582 28.8174
3806 268 4 0 26.4621 14.1512 29.1376
3205 229 6 0 25.6465 9.6192 22.9244
128 10 1 0 27.2371 2.9526 18.8501
3197 229 1 0 25.1525 8.96296 25.4707
3194 229 1 0 22.7915 10.2854 26.3654
3802 268 3 0 27.5436 13.6159 29.4706
6454 434 1 0 28.5869 8.68288 22.502
3203 229 5 0 24.6592 9.73851 23.1547
3202 229 5 0 25.4775 8.22065 27.7545
134 10 2 0 27.3066 3.61839 19.6716
3199 229 2 0 22.5429 10.923 24.2273
127 10 1 0 26.638 1.72554 19.178
6456 434 1 0 28.7971 7.43059 24.5856
3200 229 2 0 21.8 10.5312 26.6955
6451 434 1 0 29.9133 9.24451 22.7273
2078 149 1 0 2.33183 1.33924 23.6592
6455 434 1 0 28.0195 7.8815 23.4868
3007 215 5 0 17.8184 15.3984 20.5398
3807 268 4 0 27.4934 11.2297 24.6752
3201 229 2 0 23.3284 9.52688 28.2845
4310 298 2 0 28.4272 2.91331 24.4572
132 10 1 0 27.8323 2.09079 16.6977
4307 298 1 0 29.7102 2.92863 21.2892
4304 298 1 0 28.711 1.12204 23.1763
3809 268 9 0 31.5009 9.44226 28.1894
3195 229 1 0 23.6561 9.67412 27.2714
129 10 1 0 27.8121 3.16184 17.6235
3805 268 4 0 30.5976 9.49021 30.9859
130 10 1 0 26.6936 0.624684 18.2651
3196 229 1 0 24.3226 9.70812 24.5584
3198 229 1 0 24.7401 8.92425 26.8382
6452 434 1 0 30.6601 8.73229 23.8239
6464 434 4 0 26.7342 9.19269 21.0707
6465 434 4 0 27.093 6.31134 26.0054
6461 434 3 0 28.2325 6.59887 25.7404
3804 268 12 0 30.6229 9.57576 29.7838
3808 268 7 0 31.6119 9.03824 29.0607
3793 268 1 0 29.0928 11.5936 29.5437
3798 268 1 0 28.5752 11.0669 26.8599
6459 434 2 0 26.9954 7.43806 23.3064
3801 268 2 0 27.2529 12.7945 27.0033
4306 298 1 0 29.705 1.54668 20.9808
135 10 2 0 28.3918 4.09113 17.464
3803 268 3 0 28.0719 10.5342 25.4937
4305 298 1 0 28.7249 2.50596 23.4932
3206 229 6 0 26.3307 7.71763 27.4398
6453 434 1 0 30.1254 7.894 24.7603
3795 268 1 0 29.5022 10.2523 27.6021
3204 229 2 0 26.0188 8.43548 25.042
4308 298 1 0 29.3314 3.40983 22.5579
3799 268 2 0 29.1177 11.6133 30.671
6457 434 2 0 30.3172 9.88197 21.9131
3794 268 1 0 29.763 10.5077 28.9394
4313 298 3 0 29.2323 4.89793 22.7602
3800 268 2 0 29.9788 9.43572 27.1486
3797 268 1 0 28.0029 12.1473 27.5044
3193 229 1 0 23.1639 10.3942 24.9984
133 10 2 0 26.1807 1.56199 20.159
4315 298 4 0 28.0722 0.444445 25.323
6462 434 3 0 32.0933 9.22275 24.0073
1091 78 6 0 6.16377 16.054 29.3469
5870 395 1 0 23.8402 15.5072 32.1295
4314 298 12 0 28.3134 0.11657 24.1901
3624 258 1 0 15.4968 5.3336 31.736
5231 352 3 0 15.0475 6.70668 16.4977
3000 215 1 0 16.7616 15.5069 19.6011
1996 143 2 0 31.8391 0.563429 23.8684
2080 149 2 0 5.60319 2.24378 23.9471
1947 140 1 0 18.2229 12.7604 17.6004
5235 352 4 0 14.556 5.97113 17.3366
3891 273 4 0 0.829982 5.18994 24.8112
1954 140 2 0 19.0631 14.7795 17.6098
2074 149 1 0 4.69343 2.03361 23.5076
5876 395 3 0 26.3178 14.8725 32.1083
2075 149 1 0 3.60926 1.4632 24.2167
2082 149 5 0 1.35107 0.637924 24.4992
3009 215 6 0 18.3756 16.1899 20.7454
6450 433 4 0 7.0957 16.0469 25.6356
4785 326 2 0 4.5057 15.9307 23.8715
4582 314 2 0 31.989 0.0982189 16.8983
6446 433 3 0 6.15532 16.1151 26.4187
5875 395 3 0 21.2396 15.7981 32.2236
4779 326 1 0 3.78773 16.195 23.1191
138 10 2 0 27.5796 -0.048407 16.3657
4591 314 9 0 31.3699 1.2969 16.0428
4923 334 2 0 8.811 4.8182 44.0385
4916 334 1 0 7.3505 2.52402 41.2919
4919 334 1 0 8.40404 4.14909 43.3273
4915 334 1 0 8.71963 2.42041 41.5963
4918 334 1 0 9.23141 3.15328 42.672
4917 334 1 0 6.5632 3.47675 41.941
4920 334 1 0 7.1094 4.38829 42.8759
4922 334 2 0 5.46467 3.61581 41.6684
4925 334 3 0 6.34539 5.55012 43.419
4929 334 4 0 6.8424 6.51598 44.0131
2503 179 5 0 5.56412 10.3054 42.3415
2505 179 6 0 4.88541 9.51246 42.328
2504 179 2 0 3.17623 11.1698 43.1622
1169 84 2 0 15.6671 12.6368 48.7154
5326 359 1 0 0.962816 9.16021 43.8872
5332 359 2 0 0.855386 8.58247 44.7584
5329 359 1 0 2.00585 8.86655 43.0334
1529 110 1 0 8.78469 6.83271 40.9132
1535 110 2 0 8.82239 7.59389 41.654
1527 110 1 0 7.50514 5.65733 39.1437
1534 110 2 0 6.80266 7.37907 40.3702
1528 110 1 0 7.5859 6.66381 40.1798
2506 179 6 0 1.75629 12.9225 44.1527
2954 211 6 0 8.50415 15.6091 36.8668
5335 359 3 0 3.05735 7.76939 43.3258
5330 359 1 0 1.98554 9.5438 41.7729
2497 179 1 0 3.96862 11.7132 43.6747
2496 179 1 0 5.30903 11.3359 43.3251
2498 179 1 0 3.76958 12.7647 44.5975
1533 110 2 0 6.56055 5.5527 38.6564
1530 110 1 0 8.59995 4.90215 38.8279
5339 359 4 0 4.05208 7.53182 42.613
5331 359 1 0 1.03612 10.5604 41.4918
5334 359 2 0 2.71604 9.29405 41.0477
2501 179 2 0 4.49169 14.1329 45.9719
4926 334 12 0 6.64485 1.78819 40.1123
2493 179 1 0 6.37913 12.0082 43.9333
2499 179 2 0 7.4075 11.7796 43.5891
2502 179 5 0 2.46484 13.247 44.8477
1537 110 5 0 8.51732 3.99495 37.7589
1539 110 6 0 9.39576 3.56857 37.496
2495 179 1 0 4.84126 13.3828 45.2318
5336 359 3 0 1.03174 11.1989 40.1674
2494 179 1 0 6.12338 12.9431 44.908
2500 179 2 0 6.96651 13.2917 45.441
2943 211 1 0 5.39842 16.2022 37.9287
1532 110 1 0 9.87245 6.03859 40.6082
1531 110 1 0 9.77629 5.11263 39.5415
4931 334 9 0 8.2636 1.86587 39.3107
1099 79 2 0 1.13187 3.827 39.3241
5340 359 4 0 0.279347 12.0083 39.6684
2613 187 2 0 22.971 0.746455 45.6474
2606 187 1 0 20.8454 1.12212 45.4961
2608 187 1 0 19.7901 0.399258 47.5849
4921 334 2 0 9.45864 1.68088 41.2031
1971 141 5 0 27.4435 0.650479 37.0753
4924 334 3 0 10.7153 3.06186 42.9882
2424 174 1 0 5.94221 14.4904 41.7099
2607 187 1 0 22.0307 0.709249 46.15
2611 187 2 0 18.6995 1.08431 45.832
1081 78 1 0 5.73207 15.6916 33.8928
1087 78 2 0 5.56185 15.4442 34.9344
4928 334 4 0 11.2423 3.9057 43.6858
2432 174 5 0 8.94675 13.2693 40.0155
1173 84 5 0 17.8271 13.0767 46.8285
1088 78 5 0 3.71035 14.6461 33.0575
1104 79 2 0 0.39616 7.83978 40.8961
2431 174 2 0 6.4038 12.6522 40.7461
1103 79 5 0 2.21257 5.64402 40.7985
1970 141 5 0 26.8996 1.83094 41.7718
1580 113 2 0 20.8422 0.775137 36.4683
1105 79 6 0 2.37217 6.21072 41.6843
2612 187 2 0 20.872 1.40711 44.465
1964 141 1 0 27.8836 0.589736 38.4686
6250 420 3 0 24.2729 3.7376 39.6436
1965 141 1 0 27.0555 1.04912 39.487
4856 330 3 0 18.6618 15.7825 44.5289
4958 336 3 0 24.6179 15.5394 40.1862
3630 258 2 0 15.0762 5.52509 33.8674
2609 187 1 0 21.0054 -0.017513 48.1689
2671 191 5 0 10.7091 0.108211 44.9679
5328 359 1 0 0.0517014 10.8714 42.4652
1536 110 5 0 11.0504 6.13479 41.2966
1538 110 2 0 10.6251 4.50179 39.3644
5840 393 1 0 11.0828 0.0358307 38.3371
4159 289 3 0 14.5508 1.12884 37.4563
5845 393 3 0 10.7103 1.08157 36.1979
5849 393 4 0 11.1246 1.52652 35.1581
3633 258 3 0 13.9315 3.08648 34.4834
2610 187 1 0 22.1519 0.139731 47.3982
4874 331 3 0 10.7849 4.46766 35.0735
1540 110 6 0 11.754 5.48332 40.9882
5843 393 2 0 12.4362 1.125 41.254
5838 393 1 0 12.0436 1.12568 40.2489
5839 393 1 0 11.182 1.17815 37.5773
5837 393 1 0 12.1669 2.2851 39.4925
5836 393 1 0 11.7151 2.31398 38.1697
5847 393 3 0 12.6725 3.54518 40.1473
5842 393 2 0 11.806 3.29343 37.6653
3870 272 3 0 15.4906 0.684662 41.1809
5848 393 4 0 13.0656 4.63742 39.6367
4878 331 4 0 10.8771 5.31551 35.9487
4153 289 1 0 15.8452 1.54557 38.1018
4154 289 1 0 16.9275 0.638275 38.29
4156 289 2 0 15.1054 3.454 38.5423
4150 289 1 0 15.9187 2.79184 38.6028
4157 289 2 0 19.208 2.77062 39.8894
4155 289 1 0 18.1096 1.11277 38.9276
4165 289 7 0 16.1613 5.43942 39.5562
4166 289 9 0 15.4647 4.81887 39.442
4151 289 1 0 17.1461 3.27747 39.1799
3874 272 4 0 16.152 1.49819 41.8094
4152 289 1 0 18.2686 2.41434 39.3656
4161 289 12 0 17.2711 4.70399 39.6118
4162 289 4 0 18.2475 5.20919 40.1672
3637 258 4 0 13.6693 3.80604 35.4482
1570 113 1 0 17.883 2.36502 34.6199
1571 113 1 0 18.151 0.996265 34.3874
4871 331 2 0 11.2299 6.97873 34.1383
1576 113 2 0 17.1083 2.86805 34.0228
6093 410 1 0 21.6066 15.1666 46.819
1575 113 2 0 18.4795 4.18619 35.6284
1569 113 1 0 18.6689 3.13511 35.4977
2673 191 6 0 11.3792 0.536623 44.3373
1577 113 2 0 17.6761 0.380843 33.6547
2605 187 1 0 19.6979 0.860886 46.2686
4860 330 4 0 18.2734 14.6736 44.1677
6095 410 1 0 21.5648 13.9045 44.7572
6096 410 1 0 21.5395 13.9304 46.1672
6101 410 3 0 21.1008 12.6886 46.8477
2425 174 1 0 6.79512 13.635 41.0287
6099 410 2 0 21.4958 12.9356 44.2574
2456 176 1 0 25.8223 15.5063 46.5684
3635 258 4 0 16.5496 7.33076 32.5611
4869 331 1 0 11.0181 4.87065 33.6125
4953 336 1 0 24.3408 15.8304 37.713
4866 331 1 0 11.249 6.2283 33.3445
4868 331 1 0 10.875 3.9516 32.5915
4872 331 2 0 10.679 2.90627 32.8732
3628 258 1 0 14.442 3.61017 33.1803
4160 289 3 0 19.2895 0.191334 39.0275
6242 420 1 0 22.759 0.117421 40.1311
1574 113 1 0 19.2094 0.379134 35.1048
5726 385 3 0 11.226 15.6673 38.3696
3625 258 1 0 14.9965 4.86569 33.0129
1175 84 6 0 18.7881 13.0937 46.5704
6246 420 1 0 23.4015 0.54141 37.7519
6105 410 4 0 20.8377 12.5875 48.0317
1573 113 1 0 19.9981 1.19947 35.9587
1572 113 1 0 19.7236 2.52747 36.1775
2455 176 1 0 25.1593 14.3102 46.3646
1581 113 6 0 21.3136 2.87619 37.4974
2453 176 1 0 27.2281 15.4567 46.6697
2454 176 1 0 25.8499 13.0929 46.4248
6244 420 1 0 23.7105 2.32547 39.3731
2950 211 5 0 7.51401 15.4037 36.8856
6241 420 1 0 23.2055 1.4296 40.4152
6245 420 1 0 23.8039 1.81682 38.086
1477 106 2 0 20.413 14.7729 38.2965
6098 410 2 0 21.4933 15.1685 47.8634
2428 174 1 0 8.06311 14.067 40.6745
1966 141 1 0 27.6069 1.14241 40.7709
4957 336 2 0 23.772 14.9692 37.7234
2430 174 2 0 4.91112 14.102 42.0275
1481 106 5 0 20.3326 14.8682 35.5399
1579 113 5 0 20.4937 3.30431 37.0677
1483 106 6 0 20.1403 15.2563 34.5919
6247 420 2 0 23.2598 1.74513 41.4702
1974 141 6 0 25.9997 2.16522 41.3886
6254 420 4 0 24.5278 4.36361 40.6414
2457 176 2 0 27.6904 12.1664 46.8798
2462 176 2 0 24.0627 14.4907 46.1344
1471 106 1 0 20.5607 15.706 37.8309
4962 336 4 0 25.1828 15.7052 41.2875
6100 410 3 0 21.9279 15.1782 42.5067
6094 410 1 0 21.737 15.1252 44.0381
6104 410 4 0 22.0064 16.1483 41.8711
2461 176 5 0 25.0801 11.9305 46.3178
2463 176 6 0 24.1093 12.0979 46.3765
4927 334 4 0 5.46273 1.51292 40.0964
6249 420 2 0 24.1995 2.37358 37.2981
1474 106 1 0 20.5907 15.9197 36.4497
2458 176 2 0 29.0488 14.2211 46.7758
1972 141 2 0 26.0816 1.38748 39.2462
2452 176 1 0 27.9592 14.2269 46.6009
4959 336 3 0 23.9352 15.9746 35.2528
2451 176 1 0 27.2176 13.0622 46.5827
5730 385 4 0 11.5094 14.8139 39.1541
4963 336 4 0 23.5991 14.8175 35.1587
1093 79 1 0 0.526422 4.64937 39.4189
4930 334 7 0 7.49773 1.26489 39.2442
1096 79 1 0 0.949451 5.76869 40.1695
2436 174 6 0 9.56021 13.6748 39.3155
1097 79 1 0 0.120205 6.93538 40.3328
1174 84 2 0 19.0642 15.2249 47.4703
2427 174 1 0 8.4723 15.3496 41.0034
2434 174 2 0 9.4686 15.6588 40.579
2949 211 2 0 4.80242 15.4212 37.495
2584 185 2 0 0.182865 8.6511 47.7691