LAMMPS data file via write_data, version 29 Oct 2020, timestep = 10000

9505 atoms
16 atom types
8902 bonds
19 bond types
11734 angles
24 angle types
18821 dihedrals
42 dihedral types

9.456000 53.821000 xlo xhi
10.542000 53.787000 ylo yhi
-18.837000 84.846000 zlo zhi


Masses

1 12.01
2 1.008
3 12.01
4 16
5 14.01
6 1.008
7 16
8 14.01
9 1.008
10 12.01
11 14.01
12 12.01
13 1.008
14 16
15 15.9994000 # OW (oxygen in water)
16  1.0080000 # HW (hydrogen in water)

Pair Coeffs # lj/cut/coul/long/omp

1 0.086 3.39967
2 0.015 2.59964
3 0.086 3.39967
4 0.21 2.95992
5 0.17 3.25
6 0.0157 1.06908
7 0.2104 3.06647
8 0.17 3.25
9 0 0
10 0.086 3.39967
11 0.17 3.25
12 0.086 3.39967
13 0.0157 1.06908
14 0.2104 3.06647
15 0.1020000 3.1880000 # OW
16 0.0000000 0.0000000 # HW

Atoms # full

 1 1 2 0.0000 12.004 12.496 13.034
 2 1 2 0.0000 20.354 16.765 12.957
 3 1 7 -0.6373 10.619 14.827 12.142
 4 1 2 0.0000 11.173 17.892 12.104
 5 1 2 0.0000 12.607 21.474 10.181
 6 1 2 0.0000 18.430 22.505 12.845
 7 1 2 0.0000 17.866 23.098 6.562
 8 1 4 -0.5853 17.159 19.718 13.191
 9 1 2 0.0000 11.384 32.071 12.976
 10 1 4 -0.5853 9.940 25.781 11.675
 11 1 2 0.0000 18.892 12.200 18.737
 12 1 1 0.3365 18.454 11.257 19.050
 13 1 2 0.0000 20.165 14.919 20.424
 14 1 1 -0.0399 11.193 13.923 14.451
 15 1 4 -0.4675 18.318 15.238 18.685
 16 1 1 0.0692 12.646 12.401 16.399
 17 1 2 0.0000 14.379 15.385 14.286
 18 1 1 -0.2315 17.189 14.038 15.671
 19 1 1 0.3883 17.898 15.225 15.891
 20 1 1 -0.3154 17.394 16.452 15.497
 21 1 1 0.5496 16.120 16.553 14.962
 22 1 10 0.5029 19.262 15.315 17.917
 23 1 11 -0.4210 19.119 15.266 16.551
 24 1 2 0.0000 17.971 17.352 15.687
 25 1 1 0.3365 13.230 17.020 18.219
 26 1 2 0.0000 14.143 16.524 18.566
 27 1 1 -0.0399 12.581 11.983 15.069
 28 1 4 -0.4748 12.014 12.846 19.086
 29 1 1 -0.2772 15.382 15.367 14.702
 30 1 1 0.0344 11.982 12.808 14.075
 31 1 6 0.3577 19.849 15.724 16.023
 32 1 2 0.0000 13.176 11.783 17.130
 33 1 2 0.0000 15.378 13.195 14.857
 34 1 2 0.0000 17.613 13.087 15.984
 35 1 1 -0.2175 11.998 16.357 18.277
 36 1 1 0.1293 15.932 14.110 15.047
 37 1 1 -0.0843 11.927 13.527 16.815
 38 1 10 0.5083 11.901 13.783 18.312
 39 1 6 0.3503 12.264 15.055 19.831
 40 1 11 -0.4025 11.984 15.059 18.857
 41 1 1 -0.2175 17.464 11.237 20.063
 42 1 1 0.0692 11.153 14.223 15.848
 43 1 1 0.1082 10.797 17.048 17.943
 44 1 12 0.7369 13.075 10.604 14.779
 45 1 2 0.0000 10.475 14.982 16.208
 46 1 12 0.7369 10.259 14.663 13.464
 47 1 2 0.0000 9.863 16.514 18.037
 48 1 7 -0.6148 19.215 19.293 12.674
 49 1 8 -0.9254 15.684 17.869 14.880
 50 1 6 0.3728 14.987 18.111 14.206
 51 1 1 -0.2175 10.771 18.390 17.473
 52 1 2 0.0000 11.917 20.998 20.559
 53 1 4 -0.5126 18.391 20.624 18.625
 54 1 1 0.0600 18.978 20.733 15.711
 55 1 10 0.5566 19.036 21.510 18.094
 56 1 2 0.0000 14.248 18.795 17.600
 57 1 1 -0.0713 18.779 20.977 14.346
 58 1 1 -0.2418 13.268 18.321 17.702
 59 1 2 0.0000 19.121 19.714 16.061
 60 1 2 0.0000 12.177 19.968 16.865
 61 1 1 0.3365 12.068 18.984 17.311
 62 1 2 0.0000 14.802 19.670 13.302
 63 1 12 0.7387 18.322 19.832 13.501
 64 1 2 0.0000 19.495 20.425 20.652
 65 1 1 0.3365 15.328 23.791 16.083
 66 1 1 0.3365 14.932 23.892 18.483
 67 1 2 0.0000 15.195 23.281 15.134
 68 1 2 0.0000 14.513 23.463 19.390
 69 1 1 -0.2175 16.133 24.943 16.160
 70 1 1 0.0600 18.568 22.303 13.905
 71 1 11 -0.4025 19.992 22.302 18.724
 72 1 10 0.5566 17.913 24.711 14.369
 73 1 1 0.0423 18.534 23.071 16.203
 74 1 1 -0.2175 20.361 22.343 20.102
 75 1 1 -0.0820 18.346 23.341 14.837
 76 1 1 -0.2418 14.735 23.265 17.243
 77 1 2 0.0000 18.399 23.858 16.938
 78 1 2 0.0000 14.135 22.362 17.185
 79 1 1 -0.0820 18.872 21.781 16.639
 80 1 6 0.3728 14.976 18.147 14.206
 81 1 1 -0.0820 9.552 24.629 16.279
 82 1 2 0.0000 9.960 22.481 20.598
 83 1 11 -0.4025 53.731 19.023 16.998
 84 1 2 0.0000 20.508 18.548 19.248
 85 1 6 0.3503 20.488 22.951 18.127
 86 1 6 0.3503 9.568 19.326 16.035
 87 1 2 0.0000 12.653 28.927 20.452
 88 1 2 0.0000 15.497 31.676 16.216
 89 1 2 0.0000 12.365 30.481 18.564
 90 1 1 0.0600 10.769 26.386 14.423
 91 1 1 -0.0820 11.212 26.368 15.767
 92 1 11 -0.4025 20.437 30.504 17.042
 93 1 2 0.0000 16.849 26.516 17.452
 94 1 1 0.1082 16.251 25.616 17.386
 95 1 2 0.0000 11.187 25.187 17.596
 96 1 11 -0.4025 12.064 28.738 15.988
 97 1 11 -0.4025 15.865 25.742 19.779
 98 1 6 0.3503 12.830 29.302 16.343
 99 1 2 0.0000 17.960 28.378 17.866
 100 1 1 0.3365 19.999 27.121 20.276
 101 1 11 -0.4025 17.829 30.651 19.332
 102 1 4 -0.5126 13.109 27.043 17.037
 103 1 6 0.3503 15.519 26.690 19.836
 104 1 1 0.3365 18.488 28.329 18.810
 105 1 10 0.5566 12.211 27.381 16.283
 106 1 1 -0.2418 10.911 31.310 13.595
 107 1 1 -0.2418 19.252 27.187 19.094
 108 1 4 -0.5126 18.431 25.224 13.394
 109 1 4 -0.5126 16.059 29.909 18.074
 110 1 1 0.3365 11.719 30.453 14.348
 111 1 1 -0.2175 10.551 28.378 20.557
 112 1 2 0.0000 18.661 31.877 15.703
 113 1 1 -0.2175 20.266 31.901 17.142
 114 1 10 0.5566 16.724 30.837 18.500
 115 1 1 -0.2175 11.138 29.480 15.178
 116 1 1 -0.2175 15.670 25.084 18.547
 117 1 2 0.0000 19.281 26.359 18.390
 118 1 2 0.0000 11.274 27.053 13.719
 119 1 6 0.3503 19.574 29.974 17.051
 120 1 6 0.3503 18.320 31.486 19.625
 121 1 1 0.3365 11.654 29.100 20.058
 122 1 6 0.3503 16.685 26.317 14.718
 123 1 1 -0.2418 11.486 30.010 19.004
 124 1 11 -0.4025 16.897 25.383 15.046
 125 1 2 0.0000 12.803 30.567 14.299
 126 1 1 -0.2175 18.465 29.422 19.698
 127 1 1 0.0423 10.703 25.369 16.638
 128 1 1 0.3365 10.202 30.288 18.501
 129 1 2 0.0000 10.120 30.957 17.647
 130 1 1 -0.0713 9.721 25.511 14.014
 131 1 1 0.1082 9.712 29.400 15.264
 132 1 1 0.3365 53.733 31.185 13.636
 133 1 1 -0.1006 14.332 16.839 21.766
 134 1 1 0.0653 14.509 15.421 21.502
 135 1 2 0.0000 13.616 14.820 21.391
 136 1 6 0.3503 17.934 13.156 20.749
 137 1 10 0.5029 15.884 13.199 20.973
 138 1 4 -0.4675 11.929 16.720 21.814
 139 1 11 -0.4025 17.128 12.545 20.689
 140 1 10 0.5029 12.870 17.487 21.897
 141 1 1 -0.1006 15.774 14.724 21.375
 142 1 4 -0.4675 14.857 12.562 20.835
 143 1 1 0.0653 15.557 17.545 21.945
 144 1 1 0.0653 16.920 15.499 21.657
 145 1 6 0.3503 13.359 12.324 23.454
 146 1 2 0.0000 11.487 13.007 22.526
 147 1 1 0.1082 16.331 12.731 24.899
 148 1 2 0.0000 17.090 16.995 25.146
 149 1 2 0.0000 16.509 13.757 24.606
 150 1 11 -0.4025 18.947 16.864 27.916
 151 1 6 0.3503 19.301 15.932 27.754
 152 1 10 0.5029 13.196 14.081 24.542
 153 1 10 0.5029 19.378 13.627 25.610
 154 1 1 -0.2175 17.425 11.960 25.416
 155 1 6 0.3503 19.437 11.602 25.665
 156 1 2 0.0000 15.131 17.424 26.600
 157 1 11 -0.4025 18.792 12.373 25.535
 158 1 1 -0.1006 11.721 14.454 24.122
 159 1 4 -0.4675 13.776 14.809 25.330
 160 1 1 0.0653 11.007 15.499 24.808
 161 1 1 -0.2175 15.029 12.162 24.701
 162 1 4 -0.4675 18.733 14.652 25.481
 163 1 2 0.0000 20.372 12.075 23.173
 164 1 11 -0.4025 13.845 12.867 24.155
 165 1 2 0.0000 11.543 16.106 25.534
 166 1 10 0.5029 18.113 17.616 22.369
 167 1 1 -0.1006 16.827 16.884 21.981
 168 1 1 0.0653 10.977 13.746 23.130
 169 1 2 0.0000 17.892 15.007 21.659
 170 1 4 -0.4675 19.195 17.251 21.936
 171 1 6 0.3503 10.072 16.543 27.051
 172 1 6 0.3503 9.982 11.461 22.388
 173 1 1 -0.1006 9.609 15.756 24.623
 174 1 1 0.3365 14.925 10.768 24.968
 175 1 1 -0.1006 9.577 13.940 22.912
 176 1 1 0.3365 17.220 10.622 25.774
 177 1 1 0.3365 20.022 21.306 20.990
 178 1 1 0.3365 11.134 20.784 21.280
 179 1 6 0.3503 13.330 19.509 21.920
 180 1 11 -0.4025 12.544 18.887 22.071
 181 1 1 0.3365 16.583 17.957 25.106
 182 1 1 -0.2175 15.209 20.450 24.979
 183 1 1 0.3365 19.414 19.082 26.776
 184 1 11 -0.4025 18.091 18.621 23.340
 185 1 1 -0.2175 19.841 17.875 27.385
 186 1 2 0.0000 15.531 18.617 22.109
 187 1 1 -0.2418 15.469 18.195 25.917
 188 1 1 0.3365 14.777 19.414 25.832
 189 1 2 0.0000 13.882 19.546 26.430
 190 1 1 -0.2175 17.027 18.953 24.224
 191 1 6 0.3503 19.002 18.959 23.636
 192 1 11 -0.4025 14.400 21.651 24.962
 193 1 2 0.0000 18.402 19.450 26.914
 194 1 1 -0.2175 11.252 19.661 22.141
 195 1 2 0.0000 16.773 20.996 23.550
 196 1 1 0.1082 16.383 20.221 24.205
 197 1 2 0.0000 19.931 20.706 25.424
 198 1 1 -0.2418 20.269 19.784 25.898
 199 1 1 -0.2418 20.411 21.351 22.331
 200 1 2 0.0000 20.160 20.517 22.976
 201 1 4 -0.5126 17.269 24.229 20.732
 202 1 10 0.5029 14.153 22.553 23.918
 203 1 6 0.3503 10.854 23.859 27.661
 204 1 2 0.0000 12.189 23.062 25.948
 205 1 1 -0.1006 13.054 23.632 24.038
 206 1 1 0.0653 12.118 23.756 25.116
 207 1 4 -0.4675 14.769 22.436 22.872
 208 1 4 -0.5853 19.702 24.631 27.539
 209 1 1 0.0653 12.928 24.532 22.946
 210 1 1 -0.1006 11.060 24.726 25.084
 211 1 2 0.0000 13.633 24.458 22.119
 212 1 6 0.3503 13.816 21.752 25.779
 213 1 2 0.0000 11.013 18.594 27.967
 214 1 10 0.5029 9.932 24.906 26.141
 215 1 1 -0.2418 10.029 21.667 21.319
 216 1 1 0.1082 10.148 19.516 23.078
 217 1 11 -0.4025 10.042 24.425 27.457
 218 1 2 0.0000 10.141 18.664 23.744
 219 1 10 0.5566 16.677 25.294 20.801
 220 1 10 0.5029 11.819 26.433 21.649
 221 1 1 0.1082 19.203 29.334 20.898
 222 1 2 0.0000 19.188 30.161 21.602
 223 1 1 -0.2175 19.968 28.183 21.192
 224 1 4 -0.4675 12.649 26.349 20.758
 225 1 2 0.0000 15.272 27.589 21.488
 226 1 11 -0.4025 10.765 27.361 21.560
 227 1 2 0.0000 17.260 25.147 26.910
 228 1 1 0.3365 19.748 31.033 25.536
 229 1 11 -0.4025 18.618 31.312 27.676
 230 1 4 -0.5853 16.096 30.574 23.997
 231 1 1 0.0653 10.993 25.576 23.945
 232 1 4 -0.5126 14.444 26.442 25.388
 233 1 1 0.3365 10.350 30.181 24.395
 234 1 10 0.5566 17.533 30.461 27.830
 235 1 9 0.4463 14.155 30.577 22.942
 236 1 1 -0.2175 19.802 31.082 26.939
 237 1 6 0.3503 13.272 25.684 27.437
 238 1 11 -0.4025 14.177 26.096 27.621
 239 1 1 -0.2418 10.813 29.605 25.590
 240 1 2 0.0000 18.828 31.283 25.013
 241 1 1 -0.0820 18.600 27.201 23.448
 242 1 2 0.0000 11.874 29.380 25.690
 243 1 1 -0.1006 11.906 25.506 22.870
 244 1 2 0.0000 13.723 31.899 27.538
 245 1 1 0.0600 16.166 27.442 22.086
 246 1 1 -0.0820 16.974 26.301 21.876
 247 1 12 0.7387 19.750 25.833 27.737
 248 1 1 0.0600 18.702 28.168 27.634
 249 1 1 -0.0713 18.603 26.768 27.438
 250 1 1 0.0600 17.378 26.224 27.004
 251 1 1 -0.0820 17.602 29.019 27.374
 252 1 1 0.0423 16.421 28.450 26.870
 253 1 1 -0.0820 16.278 27.060 26.754
 254 1 2 0.0000 15.553 29.081 26.701
 255 1 10 0.5566 14.917 26.484 26.509
 256 1 2 0.0000 18.098 29.061 24.381
 257 1 1 0.0600 17.740 28.264 23.739
 258 1 7 -0.6148 14.569 29.770 22.590
 259 1 1 0.0423 18.173 26.171 22.597
 260 1 10 0.5566 20.060 27.467 23.585
 261 1 12 0.7387 15.729 29.669 23.268
 262 1 1 -0.0713 16.535 28.420 23.036
 263 1 2 0.0000 11.048 30.391 23.584
 264 1 2 0.0000 10.318 28.934 27.576
 265 1 2 0.0000 18.876 25.389 22.320
 266 1 1 0.3365 9.917 29.343 26.653
 267 1 6 0.3503 10.074 27.326 22.295
 268 1 2 0.0000 10.201 26.313 23.889
 269 1 6 0.3503 15.719 10.792 29.509
 270 1 2 0.0000 14.655 12.366 28.937
 271 1 4 -0.4675 12.490 15.811 28.720
 272 1 2 0.0000 18.525 14.306 28.757
 273 1 4 -0.4675 18.632 11.751 28.859
 274 1 6 0.3503 12.454 12.737 29.292
 275 1 10 0.5029 12.942 14.697 28.927
 276 1 1 0.3365 18.564 15.117 31.784
 277 1 10 0.5029 17.644 16.937 28.451
 278 1 1 -0.2418 17.440 15.921 32.052
 279 1 1 0.0653 15.237 13.276 28.925
 280 1 1 0.3365 16.212 15.346 32.469
 281 1 1 0.0653 17.436 14.362 28.780
 282 1 2 0.0000 19.478 15.591 31.423
 283 1 1 -0.2175 18.482 13.721 31.991
 284 1 11 -0.4025 12.002 13.632 29.177
 285 1 10 0.5029 17.422 11.803 29.022
 286 1 1 -0.1006 16.672 13.163 28.919
 287 1 11 -0.4025 19.627 12.837 31.835
 288 1 1 0.0653 15.390 15.682 28.796
 289 1 1 -0.1006 16.821 15.636 28.682
 290 1 1 -0.1006 14.533 14.526 28.899
 291 1 2 0.0000 14.933 16.666 28.761
 292 1 4 -0.5126 14.189 11.800 31.595
 293 1 6 0.3503 19.569 12.015 32.417
 294 1 2 0.0000 17.522 17.001 31.905
 295 1 1 -0.2175 10.508 13.467 29.239
 296 1 1 -0.0713 10.835 12.038 35.148
 297 1 10 0.5566 13.831 12.378 32.605
 298 1 1 0.0600 12.099 12.321 34.560
 299 1 1 -0.2175 16.036 13.943 32.642
 300 1 1 -0.0820 12.404 11.986 33.223
 301 1 2 0.0000 12.872 12.786 35.168
 302 1 1 -0.2175 15.031 17.578 34.737
 303 1 2 0.0000 20.184 14.838 34.405
 304 1 1 0.1082 13.672 17.187 34.527
 305 1 11 -0.4025 11.574 15.776 35.058
 306 1 11 -0.4025 14.727 13.396 33.128
 307 1 4 -0.4675 11.320 15.824 32.816
 308 1 1 0.0423 11.343 11.230 32.545
 309 1 6 0.3503 14.368 13.936 33.907
 310 1 2 0.0000 17.201 12.111 32.623
 311 1 10 0.5029 10.734 15.705 33.878
 312 1 1 0.1082 17.229 13.173 32.431
 313 1 4 -0.5126 18.708 11.513 34.901
 314 1 2 0.0000 15.382 16.021 32.643
 315 1 2 0.0000 13.103 17.757 33.807
 316 1 1 0.0600 9.792 11.438 34.390
 317 1 1 0.3365 10.040 12.129 29.126
 318 1 2 0.0000 10.752 11.329 28.974
 319 1 1 -0.0820 9.988 10.991 33.065
 320 1 2 0.0000 11.577 10.827 31.564
 321 1 11 -0.4025 16.697 10.631 29.323
 322 1 1 -0.2175 13.032 16.115 35.223
 323 1 2 0.0000 9.693 15.491 29.539
 324 1 1 0.0423 13.765 20.645 31.864
 325 1 4 -0.5853 18.541 21.034 30.231
 326 1 1 -0.0820 13.639 20.982 30.493
 327 1 11 -0.4025 11.140 20.112 30.184
 328 1 1 0.0600 14.872 21.374 29.853
 329 1 4 -0.4675 17.144 18.028 28.674
 330 1 1 0.0600 16.208 20.799 31.817
 331 1 1 -0.0713 16.151 21.247 30.486
 332 1 6 0.3503 11.261 19.682 31.092
 333 1 10 0.5566 12.277 20.858 29.709
 334 1 2 0.0000 17.174 20.676 32.313
 335 1 4 -0.5126 12.219 21.364 28.601
 336 1 2 0.0000 14.860 21.723 28.825
 337 1 12 0.7387 17.489 21.466 29.791
 338 1 10 0.5029 19.353 20.997 34.652
 339 1 4 -0.4675 18.734 19.953 34.767
 340 1 1 -0.2175 9.913 19.640 29.484
 341 1 11 -0.4025 20.399 21.140 33.740
 342 1 10 0.5566 15.076 19.924 33.896
 343 1 6 0.3503 16.300 18.379 33.284
 344 1 1 -0.0820 15.023 20.502 32.507
 345 1 11 -0.4025 15.609 18.645 33.978
 346 1 4 -0.5126 14.324 20.335 34.759
 347 1 2 0.0000 12.876 20.418 32.438
 348 1 2 0.0000 14.228 24.121 29.442
 349 1 2 0.0000 15.089 24.294 31.768
 350 1 7 -0.6148 17.510 22.217 28.672
 351 1 9 0.4463 18.630 22.999 31.284
 352 1 7 -0.6148 19.215 23.762 31.438
 353 1 9 0.4463 18.449 22.202 28.385
 354 1 1 0.3365 12.655 23.231 34.864
 355 1 1 -0.2418 11.317 23.245 34.433
 356 1 2 0.0000 13.448 23.508 34.170
 357 1 2 0.0000 11.116 23.605 33.426
 358 1 4 -0.5853 17.656 24.090 32.993
 359 1 12 0.7387 18.585 24.536 32.346
 360 1 1 0.1082 10.023 18.807 28.337
 361 1 1 0.3365 10.244 22.824 35.258
 362 1 1 -0.2418 15.044 25.180 31.141
 363 1 2 0.0000 19.603 30.431 31.178
 364 1 4 -0.4675 18.047 28.504 30.690
 365 1 1 0.3365 15.489 26.417 31.641
 366 1 1 0.3365 14.560 25.081 29.823
 367 1 1 0.0600 20.295 26.345 31.835
 368 1 1 -0.1006 17.471 30.744 31.265
 369 1 1 0.1082 14.907 27.462 29.531
 370 1 1 -0.2175 14.540 26.216 28.993
 371 1 2 0.0000 14.847 28.353 28.918
 372 1 2 0.0000 15.409 31.428 31.376
 373 1 10 0.5029 17.185 29.269 31.089
 374 1 2 0.0000 19.603 28.583 28.069
 375 1 4 -0.5126 16.493 30.907 28.288
 376 1 1 0.0653 16.455 31.721 31.380
 377 1 1 -0.2175 15.407 27.567 30.839
 378 1 6 0.3503 15.193 29.494 31.582
 379 1 4 -0.5853 11.223 30.456 30.066
 380 1 1 0.0653 18.815 31.168 31.257
 381 1 11 -0.4025 15.891 28.822 31.292
 382 1 9 0.4463 14.039 31.085 29.180
 383 1 7 -0.6148 13.414 30.484 29.622
 384 1 12 0.7387 12.169 31.030 29.562
 385 1 2 0.0000 12.896 27.277 32.769
 386 1 2 0.0000 17.741 26.435 34.093
 387 1 4 -0.4675 10.053 31.687 32.480
 388 1 1 -0.2418 12.262 27.561 33.609
 389 1 1 -0.2175 17.865 31.434 34.956
 390 1 2 0.0000 13.634 29.116 34.232
 391 1 1 0.3365 12.690 28.606 34.435
 392 1 11 -0.4025 18.704 30.368 34.535
 393 1 1 0.0600 18.612 26.765 33.533
 394 1 1 0.3365 11.037 26.895 33.864
 395 1 1 0.3365 16.494 31.348 34.665
 396 1 10 0.5566 18.402 29.016 34.664
 397 1 2 0.0000 16.101 30.479 34.146
 398 1 2 0.0000 10.765 26.092 33.187
 399 1 1 -0.0820 19.115 28.068 33.733
 400 1 1 0.0423 20.242 28.478 32.997
 401 1 6 0.3503 19.426 30.614 33.870
 402 1 1 -0.0713 19.187 25.898 32.581
 403 1 2 0.0000 15.893 26.482 32.647
 404 1 1 -0.2175 10.185 27.256 34.950
 405 1 2 0.0000 16.881 17.150 35.809
 406 1 11 -0.4025 20.495 17.211 38.431
 407 1 1 0.3365 19.561 15.363 39.700
 408 1 11 -0.4025 18.424 13.367 36.148
 409 1 1 -0.2418 15.239 15.852 36.402
 410 1 2 0.0000 18.113 12.461 38.641
 411 1 2 0.0000 10.879 12.441 41.803
 412 1 2 0.0000 15.860 15.349 37.149
 413 1 1 0.0423 12.303 17.302 40.030
 414 1 1 -0.2418 18.920 14.117 39.764
 415 1 1 0.3365 18.578 13.443 38.581
 416 1 10 0.5566 19.213 12.500 35.406
 417 1 1 -0.2175 18.827 14.039 37.329
 418 1 1 0.1082 19.407 15.316 37.275
 419 1 1 -0.2175 19.821 15.962 38.456
 420 1 4 -0.5853 11.361 13.163 37.205
 421 1 2 0.0000 12.933 17.051 40.878
 422 1 6 0.3503 17.437 13.144 36.138
 423 1 2 0.0000 19.865 15.854 40.618
 424 1 2 0.0000 13.494 14.693 36.834
 425 1 2 0.0000 16.511 14.280 42.024
 426 1 1 -0.0820 11.143 16.480 39.781
 427 1 2 0.0000 19.542 15.798 36.314
 428 1 2 0.0000 18.706 13.670 40.730
 429 1 12 0.7387 10.609 12.425 36.595
 430 1 1 0.3365 15.829 16.883 35.658
 431 1 2 0.0000 14.044 14.237 41.972
 432 1 1 0.3365 13.876 15.483 36.197
 433 1 4 -0.5126 11.476 14.900 41.544
 434 1 2 0.0000 12.948 10.976 38.736
 435 1 6 0.3503 11.121 15.564 35.936
 436 1 10 0.5566 10.763 15.203 40.604
 437 1 1 0.0600 10.325 16.887 38.717
 438 1 1 0.3365 9.861 12.199 41.518
 439 1 11 -0.4025 9.621 14.397 40.266
 440 1 2 0.0000 13.708 10.709 41.094
 441 1 7 -0.6148 9.558 11.860 37.238
 442 1 6 0.3503 14.628 19.562 37.718
 443 1 4 -0.5126 14.113 19.566 40.807
 444 1 1 0.3365 17.164 19.513 38.106
 445 1 1 -0.2418 18.494 19.921 37.936
 446 1 1 -0.2175 16.222 20.291 38.805
 447 1 2 0.0000 12.076 19.576 37.471
 448 1 2 0.0000 16.846 18.596 37.629
 449 1 2 0.0000 19.168 19.325 37.329
 450 1 11 -0.4025 14.828 19.843 38.669
 451 1 2 0.0000 19.980 21.403 38.285
 452 1 10 0.5566 13.908 19.340 39.627
 453 1 1 -0.0713 10.634 17.991 37.892
 454 1 2 0.0000 17.151 18.591 41.970
 455 1 1 0.0600 11.836 18.734 38.118
 456 1 2 0.0000 19.265 18.087 40.761
 457 1 1 -0.0820 12.689 18.434 39.221
 458 1 1 -0.2418 19.297 18.405 41.797
 459 1 1 0.3365 18.954 21.117 38.490
 460 1 6 0.3503 20.305 17.819 39.216
 461 1 1 0.3365 20.530 18.538 42.452
 462 1 1 0.3365 18.104 18.687 42.483
 463 1 1 0.1082 16.714 21.511 39.385
 464 1 1 0.1082 11.867 22.383 36.992
 465 1 11 -0.4025 14.473 22.842 36.448
 466 1 1 -0.1006 18.899 22.244 35.379
 467 1 11 -0.4025 18.517 23.215 39.739
 468 1 1 -0.2418 11.111 23.618 40.420
 469 1 6 0.3503 14.887 21.926 36.330
 470 1 1 -0.2175 12.995 22.855 36.170
 471 1 1 -0.1006 17.013 23.634 36.236
 472 1 1 0.0653 18.005 24.641 36.512
 473 1 1 0.3365 12.041 23.155 41.364
 474 1 1 -0.2175 10.450 22.330 36.572
 475 1 10 0.5566 19.773 23.853 39.710
 476 1 2 0.0000 11.061 23.174 39.439
 477 1 1 -0.1006 19.408 24.449 36.294
 478 1 2 0.0000 12.103 22.046 37.992
 479 1 1 0.0653 17.521 22.433 35.684
 480 1 10 0.5029 15.464 23.894 36.392
 481 1 6 0.3503 17.779 23.761 40.160
 482 1 1 0.0653 19.838 23.232 35.734
 483 1 2 0.0000 16.036 22.176 39.910
 484 1 2 0.0000 12.694 22.330 41.103
 485 1 1 -0.2175 18.077 21.936 39.230
 486 1 7 -0.6148 9.889 19.207 35.873
 487 1 1 0.3365 10.243 24.667 40.731
 488 1 2 0.0000 16.822 21.657 35.407
 489 1 12 0.7387 9.599 18.294 36.817
 490 1 11 -0.4025 9.794 26.634 42.029
 491 1 2 0.0000 17.690 25.606 36.899
 492 1 2 0.0000 17.796 25.339 40.939
 493 1 2 0.0000 12.645 26.585 41.321
 494 1 1 -0.0820 11.265 27.998 40.404
 495 1 1 -0.2175 18.112 32.032 40.818
 496 1 1 0.3365 20.137 29.072 37.541
 497 1 1 -0.1006 14.373 31.250 41.357
 498 1 2 0.0000 19.199 28.896 38.060
 499 1 11 -0.4025 19.991 26.820 36.641
 500 1 4 -0.5126 12.661 31.479 38.012
 501 1 1 0.0423 11.178 29.003 39.409
 502 1 4 -0.5126 17.525 28.619 35.413
 503 1 2 0.0000 20.040 28.942 41.564
 504 1 6 0.3503 16.812 30.953 41.998
 505 1 6 0.3503 12.834 30.843 35.698
 506 1 1 -0.1006 12.029 31.580 42.019
 507 1 11 -0.4025 12.314 30.156 36.233
 508 1 1 0.0600 18.730 25.884 40.840
 509 1 2 0.0000 20.280 31.128 38.208
 510 1 12 0.7387 17.627 27.756 42.111
 511 1 1 0.1082 19.231 31.705 41.627
 512 1 1 -0.0820 19.843 25.278 40.223
 513 1 11 -0.4025 16.830 31.456 41.121
 514 1 1 -0.0713 18.810 27.182 41.375
 515 1 1 0.0600 12.488 27.275 40.501
 516 1 4 -0.4675 15.100 25.056 36.436
 517 1 6 0.3503 18.986 26.918 36.636
 518 1 1 0.0600 19.994 27.920 41.200
 519 1 1 0.0600 13.380 28.445 38.564
 520 1 1 -0.0713 13.538 27.476 39.565
 521 1 4 -0.5853 16.524 27.247 42.080
 522 1 2 0.0000 14.190 28.643 37.866
 523 1 10 0.5566 12.241 30.417 37.590
 524 1 12 0.7387 14.855 26.736 39.597
 525 1 4 -0.5853 15.853 27.139 39.020
 526 1 7 -0.6148 14.826 25.477 40.084
 527 1 9 0.4463 13.890 25.239 40.152
 528 1 1 -0.2175 11.879 29.010 35.504
 529 1 1 -0.0820 12.225 29.229 38.499
 530 1 1 0.1082 10.634 28.354 35.741
 531 1 10 0.5029 15.575 31.654 40.529
 532 1 1 0.0653 14.486 30.229 42.322
 533 1 2 0.0000 15.439 29.732 42.451
 534 1 2 0.0000 19.112 30.972 42.415
 535 1 1 0.0653 13.128 31.909 41.200
 536 1 4 -0.4675 9.706 31.784 41.521
 537 1 1 -0.2175 10.433 25.373 41.923
 538 1 2 0.0000 10.299 29.640 39.349
 539 1 2 0.0000 9.993 28.732 36.527
 540 1 10 0.5566 10.052 27.810 41.321
 541 1 10 0.5029 20.463 25.519 36.567
 542 1 1 0.3365 15.963 13.999 42.921
 543 1 2 0.0000 20.443 13.325 42.855
 544 1 1 -0.2418 14.565 13.972 42.888
 545 1 2 0.0000 12.752 13.640 43.991
 546 1 1 -0.2418 14.176 17.297 44.265
 547 1 1 -0.2175 16.651 13.701 44.108
 548 1 11 -0.4025 14.219 15.812 47.680
 549 1 4 -0.4748 14.143 17.207 49.484
 550 1 7 -0.6373 17.951 12.307 48.150
 551 1 1 -0.0820 12.594 12.115 48.523
 552 1 2 0.0000 20.444 16.483 45.806
 553 1 2 0.0000 15.541 16.121 45.451
 554 1 10 0.5083 14.420 16.107 49.040
 555 1 4 -0.5126 14.805 11.632 47.663
 556 1 10 0.5566 13.736 12.195 47.476
 557 1 1 -0.1006 20.288 14.826 44.413
 558 1 4 -0.4675 18.603 14.640 46.107
 559 1 1 0.1082 15.907 13.312 45.261
 560 1 1 -0.2175 14.478 13.268 45.236
 561 1 2 0.0000 16.447 13.076 46.167
 562 1 1 0.0600 13.018 11.653 49.783
 563 1 9 0.4551 17.230 12.889 47.867
 564 1 1 0.0423 11.179 12.380 48.330
 565 1 2 0.0000 10.852 12.669 47.340
 566 1 1 0.0692 16.116 14.217 49.288
 567 1 1 -0.0843 15.156 15.055 49.899
 568 1 2 0.0000 16.249 14.261 48.211
 569 1 12 0.7369 18.034 12.513 49.478
 570 1 1 0.3365 13.836 13.621 44.034
 571 1 6 0.3503 14.649 14.945 47.382
 572 1 11 -0.4025 18.077 13.832 44.041
 573 1 10 0.5029 18.960 14.355 44.977
 574 1 2 0.0000 11.858 17.306 47.366
 575 1 11 -0.4025 13.589 12.998 46.349
 576 1 6 0.3503 12.670 13.400 46.242
 577 1 1 0.3365 14.573 16.622 45.428
 578 1 1 -0.2175 13.744 16.607 46.564
 579 1 1 0.1082 12.463 17.244 46.469
 580 1 4 -0.5853 20.357 10.899 44.242
 581 1 2 0.0000 14.870 17.356 43.428
 582 1 7 -0.6148 20.226 11.099 46.436
 583 1 6 0.3503 18.451 13.790 43.102
 584 1 9 0.4463 19.397 11.304 46.906
 585 1 1 -0.0820 10.183 12.197 49.369
 586 1 2 0.0000 14.076 11.448 49.949
 587 1 1 0.0423 14.481 20.912 45.265
 588 1 6 0.3503 16.347 20.140 43.831
 589 1 4 -0.5126 17.163 18.725 46.525
 590 1 12 0.7387 13.476 20.886 49.486
 591 1 2 0.0000 14.699 20.887 44.203
 592 1 1 0.0600 13.053 21.596 47.101
 593 1 9 0.4463 14.885 19.663 49.761
 594 1 1 0.3365 12.904 17.902 44.184
 595 1 1 -0.2175 18.139 19.121 43.820
 596 1 6 0.3503 11.124 19.655 45.454
 597 1 11 -0.4025 10.819 18.721 45.204
 598 1 1 0.0600 14.961 20.171 47.542
 599 1 2 0.0000 19.425 19.505 45.527
 600 1 1 -0.0713 13.840 20.873 48.019
 601 1 11 -0.4025 16.940 19.579 44.427
 602 1 1 -0.0820 15.296 20.179 46.172
 603 1 1 -0.0820 13.359 21.648 45.723
 604 1 2 0.0000 15.585 19.618 48.241
 605 1 1 0.1082 19.379 19.211 44.483
 606 1 1 -0.2175 11.978 17.833 45.249
 607 1 10 0.5566 16.532 19.416 45.742
 608 1 4 -0.5126 19.123 21.149 47.800
 609 1 2 0.0000 12.672 18.501 43.307
 610 1 1 -0.2175 12.084 23.701 42.659
 611 1 1 0.1082 11.307 24.862 42.919
 612 1 10 0.5566 12.418 22.446 44.823
 613 1 1 0.0600 18.430 22.925 45.650
 614 1 2 0.0000 17.921 21.969 45.647
 615 1 11 -0.4025 12.888 23.028 43.645
 616 1 1 0.0423 20.186 24.322 46.404
 617 1 1 -0.0713 18.076 23.925 44.723
 618 1 1 -0.0820 19.477 23.132 46.551
 619 1 6 0.3503 13.824 22.782 43.348
 620 1 4 -0.5126 11.262 22.619 45.169
 621 1 12 0.7387 16.960 23.670 43.766
 622 1 2 0.0000 12.183 22.132 47.469
 623 1 7 -0.6148 15.981 24.598 43.791
 624 1 10 0.5566 19.895 22.056 47.543
 625 1 4 -0.5853 16.808 22.605 43.198
 626 1 6 0.3503 10.587 24.255 48.865
 627 1 4 -0.5853 12.572 21.569 49.935
 628 1 1 0.0653 12.159 30.524 42.940
 629 1 7 -0.6148 17.907 28.666 43.071
 630 1 9 0.4463 18.873 28.668 43.193
 631 1 2 0.0000 19.584 26.500 49.137
 632 1 1 0.3365 14.193 26.348 46.034
 633 1 1 -0.2418 14.502 25.733 47.262
 634 1 1 0.3365 15.686 26.067 47.931
 635 1 1 -0.2175 15.061 27.308 45.472
 636 1 1 0.1082 16.299 27.532 46.082
 637 1 1 -0.2175 16.583 26.960 47.326
 638 1 2 0.0000 13.258 26.100 45.547
 639 1 2 0.0000 13.813 25.024 47.713
 640 1 2 0.0000 15.900 25.639 48.910
 641 1 11 -0.4025 17.776 27.269 47.987
 642 1 2 0.0000 17.015 28.212 45.632
 643 1 1 0.1082 12.086 27.124 49.540
 644 1 2 0.0000 18.498 31.322 46.087
 645 1 2 0.0000 11.775 27.678 48.662
 646 1 2 0.0000 13.600 30.754 48.446
 647 1 1 -0.0820 19.863 25.380 45.524
 648 1 6 0.3503 13.304 29.482 49.394
 649 1 1 0.0653 14.527 31.272 48.650
 650 1 4 -0.5126 18.090 29.470 47.455
 651 1 6 0.3728 14.972 30.735 45.181
 652 1 4 -0.4675 12.455 28.284 44.648
 653 1 1 -0.1006 15.465 30.703 49.529
 654 1 1 0.5496 16.733 31.831 44.940
 655 1 1 0.0423 20.439 29.665 49.203
 656 1 2 0.0000 11.397 25.383 43.869
 657 1 11 -0.4025 14.714 28.150 44.377
 658 1 1 -0.2772 18.065 31.988 45.354
 659 1 2 0.0000 18.543 25.885 43.922
 660 1 6 0.3503 18.135 26.490 48.523
 661 1 6 0.3728 16.292 30.232 46.215
 662 1 10 0.5029 13.460 28.679 44.084
 663 1 1 -0.0820 19.683 28.529 48.941
 664 1 6 0.3503 15.512 28.585 43.926
 665 1 8 -0.9254 15.931 30.842 45.489
 666 1 2 0.0000 19.980 30.606 48.940
 667 1 10 0.5566 18.453 28.488 48.065
 668 1 1 0.0653 16.654 31.429 49.779
 669 1 1 0.0600 18.775 25.149 44.679
 670 1 1 -0.2175 11.405 25.901 49.866
 671 1 2 0.0000 11.303 30.262 43.557
 672 1 9 0.4463 16.192 25.233 44.500
 673 1 1 -0.1006 13.379 29.828 43.098
 674 1 11 -0.4025 10.363 25.225 49.035
 675 1 1 0.0600 20.191 27.349 49.409
 676 1 11 -0.4025 13.882 28.848 49.922
 677 1 8 -0.9254 16.888 15.658 54.089
 678 1 4 -0.5758 14.240 13.785 54.028
 679 1 6 0.3728 16.933 14.670 53.911
 680 1 2 0.0000 19.154 14.967 52.921
 681 1 2 0.0000 10.680 14.994 50.121
 682 1 1 -0.2772 17.130 17.724 52.895
 683 1 1 0.0344 16.791 13.340 51.462
 684 1 1 -0.0399 16.967 13.399 50.070
 685 1 1 -0.0399 15.677 13.922 52.082
 686 1 1 0.0692 14.951 14.893 51.310
 687 1 2 0.0000 14.189 15.501 51.793
 688 1 1 0.5496 17.597 16.445 53.220
 689 1 1 -0.0713 12.110 11.390 50.816
 690 1 1 0.3883 19.614 16.849 51.969
 691 1 2 0.0000 17.471 12.729 52.046
 692 1 4 -0.5758 18.811 11.861 50.152
 693 1 1 -0.3154 18.803 15.973 52.694
 694 1 12 0.7369 15.245 13.390 53.471
 695 1 1 0.0600 10.729 11.691 50.604
 696 1 6 0.3728 16.956 14.659 53.879
 697 1 7 -0.6373 16.092 12.556 54.164
 698 1 4 -0.5126 20.481 14.649 50.243
 699 1 2 0.0000 10.062 11.501 51.441
 700 1 12 0.7387 12.644 10.745 52.097
 701 1 7 -0.6148 14.240 20.137 50.313
 702 1 1 -0.2315 19.193 18.159 51.696
 703 1 2 0.0000 16.159 18.047 53.257
 704 1 1 0.1293 17.925 18.583 52.123
 705 1 2 0.0000 17.567 19.578 51.881
 706 1 2 0.0000 19.847 18.842 51.160
 707 1 2 0.0000 11.555 24.249 51.295
 708 1 7 -0.6373 18.593 25.153 53.270
 709 1 1 -0.0399 20.132 26.835 53.947
 710 1 1 -0.2315 16.629 28.373 55.817
 711 1 1 0.0692 19.478 28.042 54.231
 712 1 11 -0.4210 17.954 30.416 55.503
 713 1 2 0.0000 15.260 26.730 56.166
 714 1 2 0.0000 18.603 28.321 53.651
 715 1 6 0.3577 17.673 31.284 55.943
 716 1 2 0.0000 15.976 31.044 53.866
 717 1 4 -0.4748 20.000 31.048 56.162
 718 1 1 0.1293 15.447 27.640 55.615
 719 1 1 -0.2772 14.449 28.114 54.763
 720 1 1 0.5496 14.588 29.354 54.156
 721 1 2 0.0000 17.345 28.036 56.555
 722 1 1 0.3883 16.848 29.581 55.141
 723 1 10 0.5083 19.329 30.187 55.621
 724 1 1 -0.0843 19.994 28.888 55.225
 725 1 1 -0.3154 15.820 30.065 54.300
 726 1 2 0.0000 13.493 27.603 54.692
 727 1 2 0.0000 10.662 31.356 53.693
 728 1 1 -0.2175 13.212 27.626 50.286
 729 1 2 0.0000 17.383 31.042 50.486
 730 1 1 0.3365 13.639 26.934 51.426
 731 1 1 -0.2418 13.015 25.731 51.768
 732 1 1 0.0344 10.675 32.059 52.855
 733 1 10 0.5029 15.186 29.334 50.137
 734 1 2 0.0000 14.459 27.311 52.040
 735 1 4 -0.4675 16.066 28.698 50.696
 736 1 12 0.7369 19.637 25.933 52.894
 737 1 8 -0.9254 13.380 29.909 53.747
 738 1 1 0.3365 11.943 25.217 50.997
 739 1 2 0.0000 13.388 25.188 52.636
 740 1 6 0.3728 12.896 29.504 52.964
 741 1 6 0.3728 12.875 29.515 52.958
 742 1 1 -0.2772 11.323 36.339 11.874
 743 1 12 0.7369 18.742 35.762 11.683
 744 1 4 -0.5758 19.111 34.679 12.092
 745 1 2 0.0000 14.417 36.888 13.161
 746 1 1 -0.3154 13.418 36.475 13.058
 747 1 1 -0.0399 19.101 36.985 12.455
 748 1 1 0.0344 19.476 38.135 11.758
 749 1 1 0.5496 12.678 36.739 11.895
 750 1 12 0.7369 10.938 38.817 10.055
 751 1 6 0.3728 13.500 37.722 10.263
 752 1 2 0.0000 19.755 38.047 10.711
 753 1 8 -0.9254 13.407 36.827 10.707
 754 1 7 -0.6373 17.628 35.852 10.880
 755 1 6 0.3728 13.517 37.722 10.235
 756 1 7 -0.6373 10.938 38.303 8.821
 757 1 2 0.0000 9.946 38.920 12.726
 758 1 1 0.1293 10.848 35.403 12.798
 759 1 1 -0.0399 9.526 38.904 10.581
 760 1 2 0.0000 10.655 36.592 11.065
 761 1 2 0.0000 9.833 35.026 12.706
 762 1 1 -0.0399 19.286 39.391 12.359
 763 1 1 -0.2418 14.904 40.939 13.296
 764 1 4 -0.5758 19.306 41.745 12.092
 765 1 12 0.7369 19.329 40.651 11.558
 766 1 2 0.0000 14.906 40.863 12.211
 767 1 2 0.0000 16.326 42.559 13.324
 768 1 2 0.0000 15.533 43.172 10.579
 769 1 4 -0.5758 11.783 39.665 10.270
 770 1 4 -0.5758 10.612 44.273 11.480
 771 1 2 0.0000 18.993 43.955 8.103
 772 1 7 -0.6373 18.790 40.513 10.329
 773 1 2 0.0000 12.589 51.147 11.940
 774 1 2 0.0000 13.459 46.952 12.492
 775 1 1 -0.2315 13.224 47.928 12.910
 776 1 1 -0.2772 12.711 50.284 12.588
 777 1 1 0.1293 13.140 49.051 12.068
 778 1 2 0.0000 13.357 48.956 11.008
 779 1 2 0.0000 18.370 52.902 10.994
 780 1 2 0.0000 17.958 46.650 11.227
 781 1 1 -0.0820 16.394 32.253 18.096
 782 1 1 0.0423 15.715 32.506 16.882