LAMMPS data file via write_data, version 29 Oct 2020, timestep = 492

9505 atoms
8902 bonds
11734 angles
18821 dihedrals
0 impropers

16 atom types
19 bond types
24 angle types
42 dihedral types

9.116000 53.807000 xlo xhi
9.710000 54.427000 ylo yhi
-18.840000 84.773000 zlo zhi


Masses 

 1  12.0100000 
 2   1.0080000 
 3  12.0100000 
 4  16.0000000 
 5  14.0100000 
 6   1.0080000 
 7  16.0000000 
 8  14.0100000 
 9   1.0080000 
 10 12.0100000 
 11 14.0100000 
 12 12.0100000 
 13  1.0080000 
 14 16.0000000 
 15 15.9994000 # OW (oxygen in water)
 16  1.0080000 # HW (hydrogen in water)

Pair Coeffs 

 1  0.0860000 3.3996695 
 2  0.0150000 2.5996425 
 3  0.0860000 3.3996695 
 4  0.2100000 2.9599219 
 5  0.1700000 3.2499985 
 6  0.0157000 1.0690785 
 7  0.2104000 3.0664734 
 8  0.1700000 3.2499985 
 9  0.0000000 0.0000000 
 10 0.0860000 3.3996695 
 11 0.1700000 3.2499985 
 12 0.0860000 3.3996695 
 13 0.0157000 1.0690785 
 14 0.2104000 3.0664734 
 15 0.1020000 3.1880000 # OW
 16 0.0000000 0.0000000 # HW

Atoms

 1 1 1 -0.0531 20.915 15.226 19.758
 2 1 6 0.1570 15.809 18.155 13.493
 3 1 2 0.0866 19.062 12.584 18.775
 4 1 1 -0.0632 18.544 11.637 18.952
 5 1 8 -0.3506 16.604 15.436 54.114
 6 1 2 0.0871 20.177 15.076 20.558
 7 1 1 0.0277 14.530 16.749 21.752
 8 1 1 -0.0531 14.671 15.352 21.601
 9 1 2 0.0866 20.529 14.648 12.011
 10 1 2 0.0871 13.791 14.784 21.559
 11 1 1 0.0078 11.660 18.297 17.364
 12 1 1 -0.0801 21.094 16.189 13.294
 13 1 12 0.2765 21.822 12.121 54.032
 14 1 1 0.0400 11.724 13.690 14.510
 15 1 1 0.0277 20.654 15.414 18.355
 16 1 4 -0.2763 18.185 15.338 18.520
 17 1 2 0.0872 53.632 15.012 16.158
 18 1 1 -0.0521 12.836 12.153 16.586
 19 1 2 0.0866 14.457 14.922 14.017
 20 1 2 0.0866 12.620 20.923 20.292
 21 1 4 -0.2763 18.453 20.626 18.581
 22 1 1 -0.0632 20.059 21.366 20.993
 23 1 6 0.1829 18.078 13.307 20.816
 24 1 4 -0.2623 17.913 19.019 13.615
 25 1 2 0.0839 20.776 18.589 18.859
 26 1 1 -0.0632 17.219 14.142 15.659
 27 1 1 -0.0531 21.732 15.623 17.505
 28 1 1 0.0077 17.739 15.414 15.808
 29 1 1 -0.0444 17.114 16.536 15.334
 30 1 1 -0.0091 15.859 16.400 14.678
 31 1 10 0.2266 19.181 15.325 17.823
 32 1 1 -0.0521 18.739 20.804 15.732
 33 1 1 -0.0801 21.714 19.098 18.612
 34 1 8 -0.3506 15.192 17.499 14.042
 35 1 11 -0.2514 18.982 15.471 16.481
 36 1 2 0.0896 17.577 17.464 15.561
 37 1 2 0.0871 21.496 15.891 16.474
 38 1 10 0.2266 19.121 21.528 18.076
 39 1 1 -0.0632 13.788 16.994 18.462
 40 1 2 0.0000 11.708 17.779 12.240
 41 1 2 0.0866 14.687 16.518 18.921
 42 1 2 0.0839 14.978 18.628 17.781
 43 1 1 0.0400 12.790 11.605 15.275
 44 1 4 -0.2763 12.018 12.747 19.108
 45 1 1 -0.0645 15.348 15.121 14.513
 46 1 1 -0.0510 12.321 12.424 14.245
 47 1 6 0.1829 19.694 15.831 15.835
 48 1 1 0.0400 18.670 21.131 14.388
 49 1 2 0.0872 13.257 11.528 17.299
 50 1 10 0.2266 15.949 13.183 21.131
 51 1 4 -0.2623 15.042 13.898 54.279
 52 1 1 -0.0801 13.956 18.199 17.809
 53 1 2 0.0839 15.654 12.970 14.739
 54 1 4 -0.2763 12.031 16.912 21.787
 55 1 2 0.0872 18.779 19.786 16.024
 56 1 11 -0.2514 17.257 12.735 20.778
 57 1 2 0.0866 13.045 19.845 16.707
 58 1 2 0.0866 17.739 13.297 16.059
 59 1 1 -0.0632 12.923 18.893 17.223
 60 1 2 0.0000 15.218 20.074 13.319
 61 1 1 -0.0632 11.934 20.866 21.102
 62 1 1 0.0078 12.572 16.309 18.276
 63 1 1 -0.0645 21.201 14.913 12.845
 64 1 12 0.2765 18.633 19.981 13.392
 65 1 6 0.1570 16.598 15.485 55.113
 66 1 2 0.0872 12.339 12.043 13.275
 67 1 2 0.0866 21.485 18.679 16.454
 68 1 1 -0.0801 16.045 13.996 14.995
 69 1 1 0.0278 12.237 13.386 16.917
 70 1 10 0.2266 12.155 13.747 18.388
 71 1 2 0.0839 20.293 16.877 12.999
 72 1 6 0.1829 12.522 15.045 19.928
 73 1 11 -0.2514 12.366 15.009 18.924
 74 1 2 0.0866 19.530 20.517 20.641
 75 1 1 0.0078 21.908 12.814 21.607
 76 1 1 0.0078 17.611 11.543 20.062
 77 1 1 -0.0521 11.659 14.098 15.851
 78 1 10 0.2266 13.143 17.476 21.765
 79 1 1 0.0277 15.950 14.689 21.546
 80 1 1 -0.0430 11.434 17.040 17.881
 81 1 4 -0.2763 14.948 12.537 20.914
 82 1 1 -0.0531 15.752 17.479 21.835
 83 1 6 0.1829 13.958 19.378 21.412
 84 1 11 -0.2514 13.174 18.867 21.797
 85 1 1 -0.0531 17.123 15.415 21.704
 86 1 2 0.0871 15.016 12.584 28.689
 87 1 4 -0.2763 12.825 15.947 28.599
 88 1 1 -0.0632 16.688 17.964 25.140
 89 1 6 0.1829 13.627 12.492 23.541
 90 1 2 0.0871 21.039 15.931 25.139
 91 1 1 0.0078 15.265 20.385 24.913
 92 1 2 0.0871 12.265 13.104 22.586
 93 1 1 -0.0430 16.604 12.781 24.845
 94 1 2 0.0866 17.211 16.962 25.337
 95 1 2 0.0871 18.840 14.497 28.807
 96 1 1 -0.0531 14.066 20.913 31.978
 97 1 2 0.0896 16.818 13.822 24.581
 98 1 1 -0.0632 19.430 19.206 26.740
 99 1 2 0.0866 21.312 21.640 31.410
 100 1 11 -0.2514 18.163 18.580 23.287
 101 1 1 0.0078 19.909 18.012 27.378
 102 1 1 -0.0632 21.586 19.397 25.534
 103 1 4 -0.2763 18.808 11.916 28.864
 104 1 10 0.2266 20.855 13.242 31.069
 105 1 11 -0.2514 19.035 17.009 27.971
 106 1 6 0.1829 13.369 12.972 29.376
 107 1 6 0.1829 19.377 16.106 27.661
 108 1 10 0.2266 13.886 14.216 24.652
 109 1 10 0.2266 19.381 13.796 25.489
 110 1 2 0.0871 15.695 18.537 22.054
 111 1 1 0.0078 17.597 12.027 25.477
 112 1 10 0.2266 13.367 14.920 28.873
 113 1 2 0.0871 20.962 11.892 26.731
 114 1 6 0.1829 19.570 11.722 25.667
 115 1 2 0.0866 11.627 53.732 28.819
 116 1 2 0.0839 15.025 17.385 26.441
 117 1 1 -0.0801 15.454 18.139 25.813
 118 1 1 -0.0632 18.718 15.319 31.743
 119 1 4 -0.2623 18.745 21.010 30.183
 120 1 1 -0.0632 14.805 19.386 25.795
 121 1 11 -0.2514 18.904 12.493 25.529
 122 1 10 0.2266 17.798 17.094 28.528
 123 1 1 0.0278 13.972 21.312 30.625
 124 1 1 0.0277 12.490 14.600 24.129
 125 1 11 -0.2514 11.792 20.240 30.333
 126 1 1 -0.0801 17.547 16.153 31.977
 127 1 1 -0.0531 15.531 13.503 28.811
 128 1 4 -0.2763 14.398 14.821 25.528
 129 1 2 0.0866 13.906 19.528 26.417
 130 1 1 -0.0521 15.188 21.702 29.974
 131 1 4 -0.2763 17.244 18.167 28.758
 132 1 4 -0.2763 21.172 14.156 30.367
 133 1 1 0.0277 20.864 13.832 25.794
 134 1 1 -0.0521 16.484 20.966 31.939
 135 1 1 0.0078 17.069 18.893 24.174
 136 1 1 -0.0531 11.878 15.727 24.678
 137 1 1 -0.0632 16.383 15.538 32.501
 138 1 1 0.0078 15.329 12.228 24.688
 139 1 6 0.1829 19.016 18.857 23.603
 140 1 1 -0.0531 17.725 14.592 28.792
 141 1 11 -0.2514 14.509 21.576 24.911
 142 1 1 0.0400 16.407 21.439 30.619
 143 1 4 -0.2763 18.674 14.760 25.464
 144 1 2 0.0866 19.588 15.673 31.244
 145 1 2 0.0866 18.443 19.566 26.898
 146 1 1 0.0078 12.047 19.754 21.948
 147 1 2 0.0896 16.865 20.893 23.485
 148 1 2 0.0896 20.398 12.498 23.199
 149 1 1 -0.0430 16.416 20.150 24.137
 150 1 1 0.0078 18.650 13.903 31.966
 151 1 11 -0.2514 12.740 13.707 29.061
 152 1 11 -0.2514 14.304 13.017 24.113
 153 1 1 -0.0430 20.897 12.053 22.316
 154 1 6 0.1829 12.067 19.631 31.085
 155 1 10 0.2266 17.587 12.058 29.000
 156 1 1 -0.0632 21.352 20.580 31.666
 157 1 2 0.0839 19.921 20.728 25.314
 158 1 1 0.0277 16.933 13.437 28.920
 159 1 2 0.0896 21.554 16.817 27.783
 160 1 10 0.2266 12.778 21.040 29.751
 161 1 2 0.0872 17.348 20.616 32.425
 162 1 1 -0.0430 21.247 17.613 27.179
 163 1 2 0.0871 12.356 53.650 31.556
 164 1 11 -0.2514 19.775 13.122 31.899
 165 1 1 -0.0531 15.705 15.936 28.801
 166 1 1 0.0277 17.087 15.825 28.751
 167 1 1 -0.0801 20.262 19.848 25.805
 168 1 1 0.0277 14.905 14.779 28.737
 169 1 2 0.0871 15.264 16.914 28.835
 170 1 1 -0.0531 21.566 12.727 26.397
 171 1 2 0.0871 12.426 16.314 25.435
 172 1 4 -0.2763 14.634 12.132 31.588
 173 1 10 0.2266 18.174 17.606 22.319
 174 1 4 -0.2763 12.621 21.607 28.640
 175 1 1 -0.0801 20.451 21.360 22.309
 176 1 1 0.0277 17.014 16.830 21.922
 177 1 1 -0.0531 21.634 15.005 25.469
 178 1 6 0.1829 53.724 16.665 26.768
 179 1 6 0.1829 19.645 12.234 32.343
 180 1 2 0.0872 15.225 21.961 28.902
 181 1 2 0.0896 12.041 18.658 28.100
 182 1 12 0.2765 17.705 21.502 29.798
 183 1 1 -0.0531 11.758 13.921 23.154
 184 1 2 0.0839 20.122 20.545 22.941
 185 1 1 0.0078 21.607 17.839 32.434
 186 1 2 0.0896 53.606 18.797 23.628
 187 1 2 0.0839 17.565 17.193 31.755
 188 1 1 0.0078 11.341 13.397 29.203
 189 1 2 0.0871 18.133 14.990 21.716
 190 1 4 -0.2763 19.231 17.259 21.860
 191 1 2 0.0866 17.239 17.207 35.902
 192 1 2 0.0866 21.418 18.383 41.847
 193 1 11 -0.2514 20.471 17.233 38.400
 194 1 1 -0.0632 19.612 15.328 39.691
 195 1 10 0.2266 19.505 21.073 34.740
 196 1 6 0.1829 14.796 19.584 37.776
 197 1 1 0.0400 11.667 12.178 35.270
 198 1 4 -0.2763 14.364 20.038 40.851
 199 1 11 -0.2514 18.341 13.287 36.185
 200 1 10 0.2266 14.332 12.556 32.638
 201 1 11 -0.2514 21.513 16.442 32.822
 202 1 1 -0.0801 15.595 16.020 36.623
 203 1 1 0.0278 20.668 12.936 35.186
 204 1 2 0.0866 17.933 12.532 38.739
 205 1 1 -0.0632 17.287 19.531 38.098
 206 1 1 -0.0801 18.603 19.904 37.891
 207 1 4 -0.2763 18.720 20.148 34.705
 208 1 1 0.0078 16.402 20.389 38.795
 209 1 2 0.0871 17.076 21.791 35.275
 210 1 2 0.0872 12.562 19.718 37.535
 211 1 2 0.0866 16.915 18.652 37.678
 212 1 2 0.0839 19.263 19.373 37.291
 213 1 1 -0.0632 15.970 13.984 42.809
 214 1 1 -0.0521 12.784 12.587 34.655
 215 1 11 -0.2514 15.006 20.012 38.728
 216 1 6 0.1829 20.706 16.206 33.275
 217 1 1 0.0078 16.384 14.160 32.722
 218 1 2 0.0866 12.105 12.667 42.065
 219 1 1 0.0278 13.060 12.184 33.331
 220 1 2 0.0839 16.256 15.493 37.364
 221 1 2 0.0866 20.053 21.439 38.272
 222 1 1 -0.0531 12.842 17.541 40.145
 223 1 1 -0.0801 19.017 14.091 39.789
 224 1 10 0.2266 14.160 19.670 39.738
 225 1 1 0.0400 11.410 17.985 37.753
 226 1 1 -0.0632 18.529 13.472 38.616
 227 1 2 0.0872 13.621 12.950 35.303
 228 1 10 0.2266 19.219 12.474 35.468
 229 1 1 0.0078 18.777 13.997 37.362
 230 1 1 -0.0430 19.423 15.281 37.249
 231 1 1 0.0078 19.753 15.979 38.414
 232 1 1 0.0078 15.301 17.666 34.898
 233 1 4 -0.2623 11.811 13.537 37.108
 234 1 1 0.0078 13.446 16.193 35.454
 235 1 2 0.0866 17.160 18.558 42.052
 236 1 11 -0.2514 20.444 21.165 33.741
 237 1 2 0.0871 13.552 17.294 41.016
 238 1 6 0.1829 17.336 13.289 35.996
 239 1 1 -0.0521 12.347 18.904 38.180
 240 1 2 0.0871 20.459 13.340 42.873
 241 1 10 0.2266 15.248 19.910 33.903
 242 1 2 0.0839 19.229 18.056 40.763
 243 1 2 0.0866 19.766 15.863 40.615
 244 1 2 0.0866 13.851 14.872 37.126
 245 1 2 0.0866 16.525 14.286 41.994
 246 1 2 0.0871 20.105 14.902 34.424
 247 1 1 0.0278 13.071 18.713 39.349
 248 1 2 0.0896 20.846 18.565 34.323
 249 1 1 0.0278 11.853 16.593 39.747
 250 1 1 -0.0801 19.297 18.383 41.841
 251 1 1 -0.0430 21.068 18.830 33.298
 252 1 1 -0.0430 13.941 17.317 34.770
 253 1 2 0.0896 13.290 17.847 34.096
 254 1 2 0.0896 19.570 15.790 36.338
 255 1 6 0.1829 16.443 18.389 33.313
 256 1 2 0.0839 18.780 13.713 40.803
 257 1 12 0.2765 11.380 12.505 36.684
 258 1 1 -0.0632 16.147 17.003 35.771
 259 1 1 0.0278 15.262 20.617 32.577
 260 1 10 0.2266 21.424 17.673 37.433
 261 1 2 0.0839 13.998 14.188 41.998
 262 1 11 -0.2514 12.183 15.731 35.103
 263 1 11 -0.2514 15.877 18.697 34.079
 264 1 1 -0.0632 19.054 21.131 38.442
 265 1 1 -0.0632 14.251 15.629 36.474
 266 1 11 -0.2514 15.090 13.660 33.164
 267 1 1 0.0078 20.899 20.170 32.889
 268 1 6 0.1829 20.351 17.822 39.113
 269 1 4 -0.2763 14.436 20.313 34.702
 270 1 4 -0.2763 12.378 15.819 32.805
 271 1 1 -0.0632 20.534 18.589 42.434
 272 1 1 -0.0801 14.577 14.019 42.870
 273 1 4 -0.2763 11.867 15.463 41.886
 274 1 1 -0.0531 12.123 11.445 32.607
 275 1 6 0.1829 14.677 14.244 33.856
 276 1 1 -0.0531 20.978 14.230 34.595
 277 1 2 0.0839 12.884 11.446 38.736
 278 1 2 0.0896 17.284 12.251 32.642
 279 1 6 0.1829 11.485 15.606 35.869
 280 1 10 0.2266 11.699 15.660 33.772
 281 1 1 -0.0430 17.405 13.316 32.462
 282 1 1 -0.0632 18.134 18.604 42.539
 283 1 1 -0.0430 16.865 21.572 39.353
 284 1 4 -0.2763 18.797 11.428 35.017
 285 1 2 0.0866 13.614 53.739 41.033
 286 1 10 0.2266 11.581 15.397 40.675
 287 1 1 -0.0521 21.651 11.963 35.194
 288 1 2 0.0871 13.123 20.637 32.539
 289 1 4 -0.2763 21.703 16.937 36.484
 290 1 2 0.0871 21.805 19.008 39.918
 291 1 2 0.0866 15.499 16.086 32.665
 292 1 2 0.0866 12.805 13.786 43.948
 293 1 1 -0.0801 14.472 17.187 44.280
 294 1 1 0.0078 16.673 13.706 44.035
 295 1 7 -0.3790 14.176 20.064 50.312
 296 1 1 -0.0531 14.524 20.839 45.320
 297 1 11 -0.2514 14.327 15.711 47.649
 298 1 4 -0.2763 14.148 17.320 49.357
 299 1 6 0.1829 16.413 20.183 43.689
 300 1 7 -0.3790 18.024 12.312 48.268
 301 1 4 -0.2763 17.251 18.804 46.472
 302 1 12 0.2765 13.397 20.731 49.474
 303 1 4 -0.2763 20.590 14.570 50.411
 304 1 2 0.0871 14.603 20.660 44.244
 305 1 1 -0.0632 19.088 17.904 51.853
 306 1 1 0.0278 13.201 11.975 48.538
 307 1 2 0.0896 18.986 14.783 53.109
 308 1 2 0.0871 20.472 16.508 45.777
 309 1 2 0.0000 11.787 14.775 50.155
 310 1 1 -0.0521 13.085 21.600 47.160
 311 1 11 -0.2514 20.906 16.298 51.842
 312 1 2 0.0866 15.718 15.984 45.416
 313 1 10 0.2266 14.482 16.224 48.979
 314 1 10 0.2266 21.333 15.283 51.043
 315 1 4 -0.2763 15.250 11.635 47.443
 316 1 10 0.2266 14.168 12.133 47.374
 317 1 1 0.0277 20.286 14.793 44.392
 318 1 9 0.2886 14.869 19.652 49.813
 319 1 4 -0.2763 18.644 14.636 46.181
 320 1 1 0.0078 20.571 18.964 43.825
 321 1 1 -0.0632 13.267 17.961 44.270
 322 1 1 0.0078 18.177 19.127 43.860
 323 1 6 0.1829 11.929 19.873 45.691
 324 1 1 -0.0430 15.992 13.384 45.207
 325 1 1 0.0078 14.602 13.234 45.160
 326 1 2 0.0896 16.559 13.073 46.046
 327 1 1 -0.0521 13.695 11.585 49.827
 328 1 11 -0.2514 11.466 19.028 45.453
 329 1 9 0.2886 17.232 12.761 47.878
 330 1 1 -0.0531 11.818 12.285 48.391
 331 1 2 0.0871 11.366 12.463 47.424
 332 1 1 -0.0645 17.044 17.601 53.043
 333 1 1 -0.0521 15.059 20.139 47.600
 334 1 1 -0.0510 16.564 13.414 51.613
 335 1 1 0.0400 16.879 13.415 50.233
 336 1 1 -0.0521 16.168 14.284 49.387
 337 1 1 0.0400 15.692 14.427 52.085
 338 1 1 -0.0521 15.054 15.323 51.203
 339 1 1 0.0278 15.263 15.230 49.853
 340 1 2 0.0896 19.528 19.343 45.557
 341 1 2 0.0872 16.315 14.159 48.285
 342 1 2 0.0872 14.422 16.043 51.582
 343 1 2 0.0866 16.085 18.005 53.343
 344 1 1 0.0400 13.865 20.764 48.043
 345 1 12 0.2765 17.922 12.525 49.610
 346 1 1 -0.0091 17.467 16.328 53.344
 347 1 1 -0.0632 13.896 13.707 44.019
 348 1 6 0.1829 14.821 14.847 47.366
 349 1 11 -0.2514 16.947 19.651 44.410
 350 1 1 0.0278 15.399 20.184 46.253
 351 1 1 -0.0801 17.833 18.332 52.256
 352 1 1 -0.0632 21.704 19.737 48.108
 353 1 2 0.0839 17.455 19.277 51.908
 354 1 2 0.0000 12.758 21.423 10.225
 355 1 11 -0.2514 18.083 13.820 44.088
 356 1 1 0.0278 13.338 21.510 45.815
 357 1 2 0.0872 14.818 11.454 49.968
 358 1 1 0.0400 12.767 11.524 50.925
 359 1 2 0.0866 19.755 18.642 51.330
 360 1 10 0.2266 18.977 14.368 45.003
 361 1 2 0.0896 12.158 17.372 47.389
 362 1 11 -0.2514 13.800 12.885 46.268
 363 1 2 0.0872 15.676 19.696 48.307
 364 1 6 0.1829 12.922 13.340 46.241
 365 1 11 -0.2514 21.755 18.994 44.507
 366 1 1 -0.0430 19.418 19.205 44.549
 367 1 1 0.0077 19.560 16.627 52.193
 368 1 2 0.0872 17.031 12.739 52.322
 369 1 1 -0.0531 20.917 15.996 44.887
 370 1 1 -0.0632 14.771 16.524 45.487
 371 1 1 0.0078 12.467 18.060 45.380
 372 1 1 0.0078 13.890 16.460 46.524
 373 1 10 0.2266 16.556 19.431 45.728
 374 1 4 -0.2623 18.665 11.993 50.369
 375 1 1 -0.0444 18.681 15.736 52.863
 376 1 1 -0.0430 12.769 17.256 46.480
 377 1 1 0.0077 21.807 21.037 48.714
 378 1 12 0.2765 15.669 14.638 53.561
 379 1 2 0.0866 21.139 19.522 47.216
 380 1 4 -0.2623 20.540 11.394 44.187
 381 1 6 0.1829 21.683 16.876 52.261
 382 1 4 -0.2763 19.106 21.182 47.785
 383 1 1 -0.0531 20.924 14.157 43.319
 384 1 1 -0.0521 11.437 11.782 50.730
 385 1 2 0.0839 15.145 17.247 43.373
 386 1 4 -0.2623 12.678 21.597 50.019
 387 1 7 -0.3790 20.367 11.489 46.416
 388 1 2 0.0866 12.994 18.481 43.337
 389 1 4 -0.2623 20.713 12.419 53.678
 390 1 6 0.1829 18.387 14.037 43.161
 391 1 1 0.0400 20.272 26.944 53.786
 392 1 10 0.2266 16.689 25.289 20.835
 393 1 1 0.0278 16.327 32.198 18.182
 394 1 2 0.0871 15.601 31.758 16.224
 395 1 2 0.0839 13.446 30.388 18.705
 396 1 1 -0.0521 11.685 26.582 14.500
 397 1 1 0.0278 11.999 26.554 15.872
 398 1 1 -0.0632 15.296 23.829 16.072
 399 1 11 -0.2514 20.391 30.590 17.050
 400 1 2 0.0872 18.496 22.610 12.856
 401 1 2 0.0896 16.805 26.441 17.492
 402 1 1 -0.0632 14.979 23.851 18.512
 403 1 1 -0.0430 16.277 25.559 17.451
 404 1 2 0.0866 20.536 26.126 20.416
 405 1 2 0.0866 15.212 23.363 15.098
 406 1 1 -0.0531 15.804 32.528 16.980
 407 1 2 0.0871 11.947 25.283 17.654
 408 1 11 -0.2514 13.008 28.914 16.071
 409 1 1 -0.0632 16.698 28.468 55.987
 410 1 2 0.0866 14.665 23.375 19.491
 411 1 10 0.2266 12.227 26.365 21.608
 412 1 11 -0.2514 15.836 25.727 19.832
 413 1 1 0.0078 16.063 24.942 16.214
 414 1 1 -0.0521 18.524 22.454 13.946
 415 1 1 -0.0521 19.675 28.157 54.177
 416 1 6 0.1829 13.711 29.497 16.663
 417 1 11 -0.2514 18.095 30.385 55.800
 418 1 2 0.0866 18.120 28.563 17.692
 419 1 1 -0.0632 20.041 27.084 20.213
 420 1 11 -0.2514 17.846 30.670 19.322
 421 1 2 0.0839 15.265 26.862 55.993
 422 1 4 -0.2763 13.559 27.200 17.387
 423 1 6 0.1829 15.518 26.684 19.922
 424 1 1 -0.0632 18.492 28.335 18.713
 425 1 2 0.0872 18.783 28.530 53.700
 426 1 10 0.2266 12.889 27.609 16.477
 427 1 11 -0.2514 20.023 22.397 18.736
 428 1 6 0.1829 17.695 31.226 56.200
 429 1 1 -0.0801 11.905 31.375 13.464
 430 1 10 0.2266 21.558 29.899 16.809
 431 1 2 0.0896 16.393 31.304 54.140
 432 1 10 0.2266 17.870 24.831 14.388
 433 1 1 -0.0801 19.336 27.214 19.006
 434 1 4 -0.2763 18.455 25.399 13.485
 435 1 4 -0.2763 16.106 29.930 18.059
 436 1 1 -0.0632 12.687 30.585 14.295
 437 1 1 0.0078 11.367 28.496 20.644
 438 1 2 0.0866 18.609 31.876 15.870
 439 1 1 -0.0430 19.123 29.248 20.908
 440 1 1 0.0078 20.273 31.943 17.148
 441 1 4 -0.2763 17.318 24.221 20.743
 442 1 10 0.2266 16.647 30.833 18.620
 443 1 1 0.0078 12.128 29.665 15.150
 444 1 2 0.0896 19.083 30.064 21.617
 445 1 1 -0.0531 18.463 23.188 16.225
 446 1 1 0.0078 20.422 22.414 20.107
 447 1 1 0.0078 15.633 25.106 18.608
 448 1 2 0.0839 19.374 26.418 18.360
 449 1 2 0.0872 11.948 27.413 13.928
 450 1 1 0.0278 18.342 23.470 14.880
 451 1 1 -0.0801 14.722 23.268 17.242
 452 1 4 -0.2763 20.102 31.140 56.242
 453 1 6 0.1829 19.560 29.974 17.104
 454 1 6 0.1829 18.384 31.491 19.523
 455 1 1 -0.0801 15.505 27.845 55.595
 456 1 1 -0.0645 14.625 28.523 54.705
 457 1 1 -0.0091 14.876 29.749 54.181
 458 1 2 0.0866 17.337 28.116 56.735
 459 1 1 0.0077 17.019 29.626 55.337
 460 1 10 0.2266 19.439 30.280 55.681
 461 1 6 0.1829 20.640 22.816 18.065
 462 1 2 0.0871 18.356 23.892 17.035
 463 1 1 -0.0632 12.521 29.200 20.213
 464 1 1 -0.0430 21.205 23.420 20.626
 465 1 6 0.1829 16.727 26.322 14.740
 466 1 1 -0.0801 12.514 30.093 19.119
 467 1 2 0.0866 13.422 29.050 20.809
 468 1 11 -0.2514 16.809 25.401 15.052
 469 1 1 -0.0510 21.400 26.494 54.483
 470 1 2 0.0866 13.716 30.693 14.223
 471 1 1 0.0078 18.502 29.413 19.644
 472 1 1 0.0078 19.909 28.126 21.145
 473 1 2 0.0896 21.358 24.229 19.946
 474 1 1 0.0278 20.129 28.922 55.249
 475 1 1 -0.0531 11.664 25.425 16.596
 476 1 1 -0.0444 16.115 30.310 54.544
 477 1 2 0.0866 13.626 28.171 54.604
 478 1 4 -0.2763 12.995 26.212 20.675
 479 1 2 0.0839 14.168 22.340 17.200
 480 1 2 0.0872 15.266 27.503 21.488
 481 1 1 -0.0521 21.344 28.554 55.807
 482 1 11 -0.2514 11.426 27.463 21.664
 483 1 2 0.0839 12.356 32.166 12.900
 484 1 4 -0.2763 21.325 28.731 16.593
 485 1 2 0.0872 21.702 29.176 56.592
 486 1 2 0.0896 21.655 32.033 18.661
 487 1 1 0.0278 18.759 21.852 16.647
 488 1 1 -0.0521 21.634 32.679 21.783
 489 1 2 0.0872 20.962 32.680 20.954
 490 1 2 0.0872 17.336 25.146 26.949
 491 1 2 0.0866 14.093 24.120 29.473
 492 1 1 -0.0801 15.060 25.151 31.091
 493 1 1 -0.0632 19.749 31.054 25.512
 494 1 11 -0.2514 18.577 31.326 27.629
 495 1 4 -0.2623 16.155 30.637 23.948
 496 1 2 0.0871 19.563 30.486 31.180
 497 1 4 -0.2763 18.125 28.418 30.776
 498 1 1 -0.0531 11.518 25.662 23.970
 499 1 4 -0.2763 14.518 26.553 25.358
 500 1 10 0.2266 14.289 22.339 23.770
 501 1 1 -0.0632 11.588 30.125 24.326
 502 1 6 0.1829 11.890 23.655 27.278
 503 1 1 -0.0632 53.707 29.285 26.533
 504 1 1 -0.0632 15.508 26.421 31.710
 505 1 1 -0.0632 14.541 25.098 29.814
 506 1 10 0.2266 17.501 30.473 27.874
 507 1 1 -0.0521 20.299 26.328 31.828
 508 1 9 0.2886 20.504 27.271 28.390
 509 1 1 0.0277 17.499 30.672 31.246
 510 1 9 0.2886 14.172 30.637 22.910
 511 1 2 0.0839 15.109 24.227 31.683
 512 1 1 0.0078 19.791 31.138 26.966
 513 1 6 0.1829 13.324 25.697 27.395
 514 1 10 0.2266 21.937 28.244 31.136
 515 1 6 0.1829 21.096 25.471 22.389
 516 1 1 -0.0430 14.883 27.477 29.560
 517 1 1 0.0078 14.531 26.201 29.034
 518 1 1 0.0078 21.493 23.507 22.045
 519 1 1 -0.0430 20.997 30.925 27.607
 520 1 11 -0.2514 14.235 26.110 27.632
 521 1 1 -0.0801 12.008 29.400 25.440
 522 1 2 0.0896 14.767 28.346 28.918
 523 1 2 0.0871 12.557 23.015 25.850
 524 1 2 0.0866 18.873 31.348 24.886
 525 1 1 0.0278 18.595 27.174 23.438
 526 1 2 0.0839 13.002 29.100 25.492
 527 1 1 -0.0632 21.203 22.423 22.878
 528 1 1 0.0277 12.264 25.437 22.811
 529 1 1 0.0277 13.342 23.435 23.885
 530 1 2 0.0871 15.377 31.463 31.430
 531 1 7 -0.3790 17.737 22.214 28.675
 532 1 2 0.0872 13.759 31.547 27.294
 533 1 1 -0.0521 16.166 27.441 22.133
 534 1 1 -0.0531 12.543 23.656 25.019
 535 1 10 0.2266 17.211 29.177 31.167
 536 1 1 0.0278 16.928 26.287 21.916
 537 1 2 0.0872 19.623 28.596 28.098
 538 1 4 -0.2763 16.476 30.995 28.290
 539 1 4 -0.2763 20.625 27.427 24.767
 540 1 1 -0.0531 16.515 31.666 31.370
 541 1 1 0.0078 15.427 27.570 30.858
 542 1 12 0.2765 19.752 25.782 27.687
 543 1 6 0.1829 15.232 29.406 31.664
 544 1 4 -0.2623 11.390 30.414 29.841
 545 1 1 -0.0521 18.719 28.175 27.634
 546 1 1 0.0400 18.630 26.758 27.440
 547 1 1 -0.0521 17.429 26.200 27.036
 548 1 1 0.0278 17.576 28.989 27.417
 549 1 1 -0.0531 16.441 28.404 26.909
 550 1 1 0.0278 16.324 27.031 26.839
 551 1 2 0.0872 20.666 25.708 31.038
 552 1 6 0.1829 18.501 32.239 28.003
 553 1 2 0.0871 15.629 29.106 26.743
 554 1 9 0.2886 18.526 22.913 31.200
 555 1 10 0.2266 15.002 26.497 26.478
 556 1 2 0.0866 21.456 22.402 23.920
 557 1 2 0.0872 18.120 28.947 24.379
 558 1 1 -0.0531 18.818 31.196 31.183
 559 1 4 -0.2763 14.820 22.045 22.700
 560 1 4 -0.2623 19.633 24.579 27.529
 561 1 11 -0.2514 15.928 28.783 31.227
 562 1 1 -0.0521 17.792 28.215 23.738
 563 1 9 0.2886 14.276 30.912 29.224
 564 1 7 -0.3790 14.602 29.864 22.534
 565 1 1 -0.0531 18.190 26.205 22.567
 566 1 2 0.0896 20.993 30.843 28.671
 567 1 10 0.2266 20.028 27.553 23.671
 568 1 1 0.0400 12.468 32.263 28.805
 569 1 2 0.0839 20.911 30.430 23.731
 570 1 1 0.0278 20.903 27.593 32.006
 571 1 1 -0.0531 13.249 24.411 22.884
 572 1 12 0.2765 15.659 29.704 23.381
 573 1 1 0.0277 11.672 24.775 25.042
 574 1 1 0.0400 16.491 28.389 23.130
 575 1 2 0.0866 12.225 30.238 23.557
 576 1 7 -0.3790 13.641 30.256 29.629
 577 1 2 0.0871 13.961 24.245 21.995
 578 1 7 -0.3790 20.758 26.324 28.324
 579 1 11 -0.2514 20.585 27.985 22.447
 580 1 2 0.0866 11.575 28.926 27.485
 581 1 2 0.0871 18.921 25.528 22.242
 582 1 1 -0.0801 20.904 30.666 24.813
 583 1 4 -0.2763 21.580 29.184 30.421
 584 1 12 0.2765 12.432 30.945 29.578
 585 1 6 0.1829 13.898 21.700 25.705
 586 1 7 -0.3790 19.213 23.629 31.429
 587 1 2 0.0839 13.412 27.554 32.473
 588 1 6 0.1829 21.539 28.237 22.481
 589 1 9 0.2886 18.672 22.154 28.353
 590 1 1 -0.0430 12.603 22.311 36.844
 591 1 2 0.0871 17.867 25.607 36.933
 592 1 2 0.0871 20.670 29.423 33.084
 593 1 2 0.0872 17.788 25.384 40.744
 594 1 2 0.0872 13.159 26.650 41.296
 595 1 1 0.0278 11.774 28.113 40.471
 596 1 1 0.0078 18.219 32.036 40.782
 597 1 11 -0.2514 14.971 22.875 36.350
 598 1 2 0.0872 17.716 26.462 34.144
 599 1 4 -0.2763 11.330 31.799 32.346
 600 1 1 -0.0632 20.115 29.061 37.495
 601 1 1 0.0277 19.113 22.335 35.418
 602 1 11 -0.2514 18.628 23.224 39.880
 603 1 1 0.0078 20.721 28.061 36.687
 604 1 1 -0.0801 11.617 23.651 40.402
 605 1 1 0.0277 14.578 31.191 41.389
 606 1 2 0.0866 19.267 28.768 38.090
 607 1 6 0.1829 15.379 21.932 36.167
 608 1 1 0.0278 21.098 27.406 40.565
 609 1 11 -0.2514 20.104 26.817 36.581
 610 1 1 0.0078 13.608 22.865 35.970
 611 1 4 -0.2763 12.767 31.585 37.966
 612 1 11 -0.2514 21.784 31.944 42.019
 613 1 1 -0.0531 11.620 29.122 39.481
 614 1 4 -0.2763 17.534 28.600 35.482
 615 1 1 0.0277 17.273 23.666 36.232
 616 1 1 -0.0531 18.203 24.668 36.519
 617 1 2 0.0872 19.991 29.003 41.581
 618 1 1 -0.0801 12.869 27.864 33.351
 619 1 2 0.0871 21.048 23.107 35.383
 620 1 1 -0.0632 12.354 23.074 41.424
 621 1 6 0.1829 17.063 30.909 41.956
 622 1 1 0.0078 17.921 31.429 34.980
 623 1 2 0.0866 14.146 29.348 33.989
 624 1 1 0.0078 12.388 23.574 42.698
 625 1 4 -0.2763 20.819 23.352 39.318
 626 1 1 -0.0632 13.289 23.297 34.692
 627 1 1 -0.0801 11.960 23.220 34.264
 628 1 6 0.1829 13.107 31.019 35.558
 629 1 1 -0.0632 13.285 28.803 34.256
 630 1 1 0.0277 12.222 31.577 41.965
 631 1 11 -0.2514 12.813 30.254 36.163
 632 1 1 0.0078 11.261 22.331 36.485
 633 1 10 0.2266 19.827 23.840 39.814
 634 1 2 0.0839 11.481 23.153 39.482
 635 1 11 -0.2514 18.718 30.290 34.535
 636 1 1 -0.0521 18.710 25.912 40.850
 637 1 2 0.0839 20.160 31.169 38.003
 638 1 12 0.2765 17.639 27.767 42.148
 639 1 1 -0.0430 19.247 31.812 41.678
 640 1 1 0.0278 19.816 25.303 40.231
 641 1 1 0.0277 19.591 24.505 36.237
 642 1 11 -0.2514 17.003 31.360 41.029
 643 1 1 0.0400 18.797 27.212 41.419
 644 1 6 0.1829 20.476 22.154 33.400
 645 1 1 -0.0521 12.967 27.383 40.488
 646 1 1 -0.0521 18.691 26.675 33.645
 647 1 4 -0.2763 15.288 25.068 36.403
 648 1 1 -0.0531 21.004 26.082 40.133
 649 1 1 -0.0632 11.825 27.055 33.716
 650 1 2 0.0896 12.780 21.979 37.839
 651 1 1 -0.0531 17.756 22.510 35.688
 652 1 6 0.1829 19.172 26.990 36.207
 653 1 1 -0.0521 19.968 27.961 41.231
 654 1 1 -0.0521 13.659 28.351 38.389
 655 1 1 0.0400 13.937 27.531 39.472
 656 1 4 -0.2623 16.498 27.297 42.088
 657 1 2 0.0871 21.890 25.589 39.686
 658 1 2 0.0872 14.442 28.587 37.658
 659 1 10 0.2266 12.578 30.464 37.532
 660 1 12 0.2765 15.162 26.649 39.496
 661 1 4 -0.2623 16.144 27.024 38.870
 662 1 2 0.0866 14.032 23.703 34.069
 663 1 7 -0.3790 15.052 25.433 39.981
 664 1 9 0.2886 14.061 25.340 40.018
 665 1 1 0.0078 12.497 29.131 35.389
 666 1 1 0.0278 12.587 29.262 38.446
 667 1 10 0.2266 15.798 23.955 36.379
 668 1 1 -0.0801 20.719 30.371 37.549
 669 1 10 0.2266 20.624 25.604 36.525
 670 1 1 -0.0632 16.543 31.298 34.613
 671 1 1 -0.0430 11.364 28.378 35.680
 672 1 6 0.1829 17.813 23.787 40.159
 673 1 10 0.2266 18.422 28.988 34.666
 674 1 10 0.2266 15.760 31.607 40.539
 675 1 2 0.0866 16.161 30.425 34.028
 676 1 1 -0.0531 14.736 30.213 42.363
 677 1 2 0.0866 11.563 26.209 33.074
 678 1 2 0.0871 15.652 29.800 42.464
 679 1 1 -0.0531 20.045 23.302 35.695
 680 1 1 0.0278 19.117 28.044 33.710
 681 1 2 0.0896 16.146 22.222 39.803
 682 1 2 0.0866 12.917 22.191 41.197
 683 1 1 -0.0531 20.233 28.437 32.962
 684 1 2 0.0896 19.085 31.049 42.424
 685 1 1 0.0078 18.225 21.963 39.286
 686 1 2 0.0839 11.659 23.589 33.299
 687 1 6 0.1829 19.374 30.518 33.774
 688 1 1 -0.0531 13.343 31.845 41.173
 689 1 1 0.0078 20.548 32.362 41.485
 690 1 1 -0.0430 11.777 24.817 42.953
 691 1 1 -0.0531 12.353 30.525 42.925
 692 1 1 -0.0801 15.723 32.342 35.054
 693 1 4 -0.2763 21.784 25.389 36.704
 694 1 4 -0.2623 17.606 24.074 32.987
 695 1 1 0.0400 19.208 25.872 32.574
 696 1 4 -0.2763 15.507 32.038 39.444
 697 1 7 -0.3790 17.909 28.730 43.085
 698 1 2 0.0839 14.646 32.288 34.901
 699 1 9 0.2886 18.860 28.609 43.151
 700 1 12 0.2765 18.503 24.519 32.248
 701 1 2 0.0866 15.897 26.489 32.703
 702 1 2 0.0872 20.320 26.189 49.073
 703 1 1 -0.0632 14.200 26.277 46.050
 704 1 1 -0.0801 14.497 25.806 47.333
 705 1 1 -0.0632 15.665 26.093 48.036
 706 1 1 0.0078 15.102 27.242 45.513
 707 1 1 -0.0430 16.333 27.493 46.152
 708 1 1 0.0078 16.645 26.968 47.425
 709 1 2 0.0866 13.224 25.979 45.518
 710 1 2 0.0839 13.855 25.073 47.734
 711 1 2 0.0866 15.802 25.696 49.015
 712 1 11 -0.2514 17.933 27.119 48.002
 713 1 4 -0.2763 21.638 31.910 49.773
 714 1 2 0.0896 16.958 28.195 45.576
 715 1 1 -0.0430 12.467 27.122 49.700
 716 1 2 0.0866 18.357 31.215 45.994
 717 1 10 0.2266 12.501 22.241 44.842
 718 1 2 0.0896 11.989 27.686 48.954
 719 1 2 0.0871 13.697 30.654 48.460
 720 1 4 -0.2623 20.498 25.418 52.037
 721 1 1 0.0278 19.894 25.329 45.611
 722 1 6 0.1829 13.437 29.449 49.512
 723 1 1 -0.0521 18.533 22.964 45.587
 724 1 1 -0.0531 14.605 31.322 48.683
 725 1 6 0.1829 21.720 22.949 47.721
 726 1 4 -0.2763 18.327 29.289 47.379
 727 1 11 -0.2514 14.039 28.922 50.054
 728 1 6 0.1570 14.835 30.642 45.270
 729 1 1 0.0078 13.542 27.650 50.404
 730 1 12 0.2765 13.812 31.647 52.803
 731 1 2 0.0871 17.464 31.103 50.450
 732 1 2 0.0872 17.995 22.021 45.548
 733 1 4 -0.2763 12.630 28.244 44.575
 734 1 1 0.0277 15.543 30.777 49.605
 735 1 2 0.0839 21.625 30.345 10.701
 736 1 1 -0.0091 16.640 31.756 44.930
 737 1 1 -0.0531 20.399 29.608 49.322
 738 1 1 0.0278 21.737 29.656 49.869
 739 1 4 -0.2763 21.769 31.997 46.276
 740 1 1 -0.0632 13.921 27.085 51.613
 741 1 4 -0.2763 20.856 27.095 44.349
 742 1 2 0.0896 11.957 25.422 43.882
 743 1 11 -0.2514 13.078 22.760 43.661
 744 1 11 -0.2514 14.806 28.004 44.339
 745 1 1 -0.0645 17.992 31.914 45.302
 746 1 2 0.0872 18.652 25.859 43.891
 747 1 6 0.1829 18.308 26.336 48.504
 748 1 1 -0.0531 20.204 24.378 46.563
 749 1 1 -0.0521 20.627 27.167 49.294
 750 1 6 0.1570 16.269 30.292 46.222
 751 1 10 0.2266 13.625 28.657 44.013
 752 1 1 0.0400 18.131 23.898 44.674
 753 1 1 0.0278 19.899 28.297 48.947
 754 1 1 -0.0801 13.362 25.861 52.048
 755 1 1 -0.0510 11.259 31.561 52.476
 756 1 10 0.2266 20.784 26.557 45.413
 757 1 6 0.1829 15.660 28.496 44.177
 758 1 8 -0.3506 15.866 30.728 45.475
 759 1 2 0.0871 19.877 30.528 48.993
 760 1 2 0.0000 20.961 22.822 51.647
 761 1 10 0.2266 18.701 28.256 47.968
 762 1 1 -0.0531 16.697 31.562 49.839
 763 1 4 -0.2763 12.671 32.325 46.930
 764 1 4 -0.2623 14.743 32.422 52.759
 765 1 10 0.2266 15.346 29.392 50.112
 766 1 2 0.0866 14.593 27.569 52.291
 767 1 1 0.0278 19.516 23.181 46.574
 768 1 4 -0.2763 16.186 28.707 50.592
 769 1 12 0.2765 19.706 26.070 52.698
 770 1 1 -0.0521 18.803 25.100 44.720
 771 1 8 -0.3506 13.779 30.453 53.520
 772 1 2 0.0000 17.785 22.974 6.565
 773 1 1 0.0078 12.038 25.781 49.978
 774 1 6 0.1829 13.998 22.506 43.447