LAMMPS data file via write_data, version 29 Oct 2020, timestep = 2000

9505 atoms
16 atom types
8902 bonds
19 bond types
11734 angles
24 angle types
18821 dihedrals
42 dihedral types

9.116 53.807 xlo xhi
9.71 54.427 ylo yhi
-18.84 84.773 zlo zhi

Masses

1 12.01
2 1.008
3 12.01
4 16
5 14.01
6 1.008
7 16
8 14.01
9 1.008
10 12.01
11 14.01
12 12.01
13 1.008
14 16
15 15.9994
16 1.008

Pair Coeffs # lj/cut/coul/long/omp

1 0.086 3.39967
2 0.015 2.59964
3 0.086 3.39967
4 0.21 2.95992
5 0.17 3.25
6 0.0157 1.06908
7 0.2104 3.06647
8 0.17 3.25
9 0 0
10 0.086 3.39967
11 0.17 3.25
12 0.086 3.39967
13 0.0157 1.06908
14 0.2104 3.06647
15 0.102 3.188
16 0 0

Atoms # full

6509 3 15 -0.83 15.41171749859684 10.295846435457957 -6.835691095666412 0 0 0
6510 3 16 0.415 15.391183668252859 11.091292972747253 -6.291735471700949 0 0 0
6533 11 15 -0.83 14.4169522433663 14.747534484929545 -10.538398545712194 0 0 0
6534 11 16 0.415 13.789939236206447 14.113981665853245 -10.914167275136066 0 0 0
6535 11 16 0.415 13.787142711687688 14.11643208137435 -10.916447235364835 0 0 0
6641 47 15 -0.83 10.306518830260918 12.24657458568398 -18.564406052907902 0 0 0
6642 47 16 0.415 10.371095403030967 12.641970895556238 -17.670070563392336 0 0 0
6643 47 16 0.415 10.375189702460196 12.641752486120415 -17.669112996827973 0 0 0
6651 50 16 0.415 14.172138598076923 16.877275660791796 -8.224923498245374 0 0 0
6887 129 15 -0.83 13.648215054471184 11.207537901419878 -10.707943426570743 0 0 0
6888 129 16 0.415 13.6052880484298 10.369361001212871 -10.221220623097572 0 0 0
6889 129 16 0.415 13.602605704184583 10.370300557400398 -10.217499216696107 0 0 0
7196 232 15 -0.83 12.02001381579576 17.018180065747643 -12.231477333494432 0 0 0
7205 235 15 -0.83 10.37189567377949 14.405908857833717 -9.086241235708657 0 0 0
7206 235 16 0.415 9.49836641514183 14.670239690296022 -9.385764534201503 0 0 0
7207 235 16 0.415 9.497671174503576 14.695279762362075 -9.381958214917574 0 0 0
7304 268 15 -0.83 11.891559491138405 11.373928689345359 -15.399381800125958 0 0 0
7305 268 16 0.415 12.395238900152604 11.631656525207232 -14.621040283123364 0 0 0
7306 268 16 0.415 12.391533693789658 11.635935240796716 -14.618079808850853 0 0 0
7505 335 15 -0.83 14.982254042245525 14.155765542331023 -14.862869755610308 0 0 0
7506 335 16 0.415 15.597800930598204 14.900403957712628 -14.841315562565262 0 0 0
7507 335 16 0.415 15.597703370884437 14.901724960188732 -14.837368322802073 0 0 0
6652 50 16 0.415 14.170550851595944 16.878103608260947 -8.229728105483444 0 0 0
6511 3 16 0.415 15.393851138579565 11.089886169156637 -6.287133472751683 0 0 0
6593 31 15 -0.83 9.178835650711976 13.617904136091823 -14.994639674060096 1 0 0
6653 51 15 -0.83 21.562843093787063 16.469161415289193 -14.449380499731912 0 0 0
6654 51 16 0.415 22.173866760538832 16.89162691955363 -13.841644548731727 0 0 0
7010 170 15 -0.83 23.288209850736653 11.787216776700683 -12.647127780276357 0 0 0
7011 170 16 0.415 23.601005922072126 11.009455606326554 -13.116912387361026 0 0 0
7182 227 16 0.415 23.43653983398843 13.798105810048437 -9.987767998767344 0 0 0
7183 227 16 0.415 23.43860868846815 13.797311382847555 -9.99560425598803 0 0 0
7268 256 15 -0.83 19.602793678784252 12.696303087471005 -6.379719117701122 0 0 0
7270 256 16 0.415 18.675803708951353 12.457838823255084 -6.349529985516753 0 0 0
7298 266 15 -0.83 17.297309473870715 11.827481990024722 -17.27317603382112 0 0 0
7299 266 16 0.415 17.504799753399826 11.378066279503324 -16.450480780356916 0 0 0
7300 266 16 0.415 17.50326241414386 11.38189228989307 -16.44628112790816 0 0 0
7310 270 15 -0.83 17.712232551405883 11.264899332078127 -12.793933284730503 0 0 0
7311 270 16 0.415 17.140528518209802 11.325903888604099 -12.025867940703804 0 0 0
7312 270 16 0.415 17.142295441188978 11.33024310982209 -12.023210698157598 0 0 0
7421 307 15 -0.83 20.106682430355097 16.45440682826551 -8.2357218838023 0 0 0
7423 307 16 0.415 19.237579753049577 16.587015401177084 -8.625639654115105 0 0 0
7451 317 15 -0.83 20.188627723848512 15.429220476796242 -17.964098631034545 0 0 0
7452 317 16 0.415 20.750915152447124 16.03183728088344 -17.47029139865801 0 0 0
7453 317 16 0.415 20.74263977964537 16.035986526908676 -17.458702346476386 0 0 0
7481 327 15 -0.83 23.756273506165044 16.123079775164058 -7.433707086036604 0 0 0
7482 327 16 0.415 23.024650023503302 16.663580909878217 -7.132785238057598 0 0 0
7483 327 16 0.415 23.025695293278417 16.66440017495282 -7.126900107661453 0 0 0
7547 349 15 -0.83 21.12624718538163 10.367157998765997 -9.897877372174237 0 0 0
7548 349 16 0.415 21.206581719969765 11.141824639616527 -9.332320393003062 0 0 0
7549 349 16 0.415 21.208788191241656 11.13965393827319 -9.327054633114953 0 0 0
7012 170 16 0.415 23.606482486945566 11.008414120170286 -13.11463050240574 0 0 0
7269 256 16 0.415 18.676938501654487 12.46206149452643 -6.343343901024244 0 0 0
6655 51 16 0.415 22.170616421828434 16.896076551615714 -13.83906025591006 0 0 0
7422 307 16 0.415 19.239001605519615 16.592208086254782 -8.623340856080166 0 0 0
6575 25 15 -0.83 27.512886652033647 13.121119308850368 -9.770815562836848 0 0 0
6576 25 16 0.415 28.240833806105655 12.53752279659978 -9.562825434479766 0 0 0
6577 25 16 0.415 28.242029631994487 12.538563557749317 -9.55585396194037 0 0 0
6851 117 15 -0.83 26.85642673908448 16.58551491986226 -14.721536931198335 0 0 0
6852 117 16 0.415 26.285906501926213 16.921061882378087 -14.026203299885315 0 0 0
6860 120 15 -0.83 30.482184723984126 15.722682143819672 -12.838678834516257 0 0 0
6861 120 16 0.415 30.00314158468216 15.80675943209508 -12.010745762082578 0 0 0
6862 120 16 0.415 30.00299377918494 15.800921413122259 -12.00840976858767 0 0 0
7172 224 15 -0.83 28.79075682881205 15.0808236532775 -18.328265333508085 0 0 0
7173 224 16 0.415 27.937452586944794 15.486596064870392 -18.132638512009056 0 0 0
7174 224 16 0.415 27.938885012838078 15.491369145791019 -18.124624412145426 0 0 0
7181 227 15 -0.83 24.172729468477872 13.423172351170193 -9.506315819207016 0 0 0
7445 315 15 -0.83 30.41951097591709 13.007966911693801 -14.92600594912571 0 0 0
7446 315 16 0.415 30.99473905808224 12.791268321729111 -15.660375617239927 0 0 0
7447 315 16 0.415 30.9922942801948 12.7974704085335 -15.667250648565146 0 0 0
7569 356 16 0.415 28.201490997516732 16.645848995856657 -8.436804588364627 0 0 0
7586 362 15 -0.83 30.87202414634245 15.98317364653467 -8.610320527270929 0 0 0
7985 495 15 -0.83 27.35902107003129 10.890778226063714 -15.34607175119953 0 0 0
7986 495 16 0.415 27.84590022356089 11.721373357659017 -15.377895199758388 0 0 0
7987 495 16 0.415 27.84792805312996 11.721386955217104 -15.382127139770263 0 0 0
6853 117 16 0.415 26.289111222528142 16.924705785971245 -14.023391100120332 0 0 0
7570 356 16 0.415 28.204628954846527 16.6468662414644 -8.442390302104585 0 0 0
6737 79 15 -0.83 9.297955731997746 17.791795802785074 -13.393336489385428 1 0 0
6599 33 15 -0.83 15.64039760781365 17.472860812420056 -14.33931312751638 0 0 0
6600 33 16 0.415 15.355621495753459 18.325028882498742 -13.989855279989456 0 0 0
6601 33 16 0.415 15.359160868817277 18.326598562122765 -13.987751033365498 0 0 0
6650 50 15 -0.83 13.730393284754348 17.558731449393232 -7.703280233315335 0 0 0
7043 181 15 -0.83 10.670467422903787 22.60618134274235 -12.06560192841157 0 0 0
7044 181 16 0.415 9.70168646885692 22.591379972393497 -12.008241221853865 0 0 0
7045 181 16 0.415 9.700441825692968 22.58614478212183 -12.007649746310003 0 0 0
7082 194 15 -0.83 15.305177894083885 22.941475218397393 -16.728596254724344 0 0 0
7083 194 16 0.415 15.361718780854 22.251337649849056 -16.06324550555895 0 0 0
7084 194 16 0.415 15.362633171100818 22.254502150985047 -16.057710425867825 0 0 0
7178 226 15 -0.83 14.886430815953965 21.400631902796395 -8.759196796729379 0 0 0
7179 226 16 0.415 14.026730200615193 21.30799916541151 -9.187671269140463 0 0 0
7180 226 16 0.415 14.027983776572206 21.306322622214587 -9.19311910265361 0 0 0
7197 232 16 0.415 11.665576763390604 17.57210699788808 -12.935531844584208 0 0 0
7198 232 16 0.415 11.661401688917875 17.568674717316714 -12.938197690526074 0 0 0
7223 241 15 -0.83 13.666183144986697 20.656269072550327 -13.424293621552302 0 0 0
7224 241 16 0.415 13.056372107335546 21.406781609718244 -13.4413065901999 0 0 0
7225 241 16 0.415 13.053487095686227 21.40610807539979 -13.44593581224045 0 0 0
7283 261 15 -0.83 15.264002725646314 24.277953242799924 -6.315552124408929 0 0 0
7284 261 16 0.415 15.894276942011613 23.598278376232685 -6.0423879308117545 0 0 0
7285 261 16 0.415 15.892061037649603 23.59594091721809 -6.038844133143924 0 0 0
7763 421 15 -0.83 9.192696060734797 18.991806391969728 -18.096891644733265 1 0 0
6968 156 15 -0.83 17.254708913657552 19.65075649558239 -6.650853470787013 0 0 0
6969 156 16 0.415 16.893648667262017 19.880689955045316 -7.509390231781669 0 0 0
6970 156 16 0.415 16.89299374383554 19.87633659804774 -7.511669398457889 0 0 0
7250 250 15 -0.83 22.801352287231932 20.687553645603174 -13.829633976391477 0 0 0
7251 250 16 0.415 23.605746597168043 20.99632243176852 -13.392784504528874 0 0 0
7252 250 16 0.415 23.607339874854873 20.998952485164857 -13.395355205138626 0 0 0
7607 369 15 -0.83 22.185703439181474 19.02764914491496 -17.675506213034605 0 0 0
7608 369 16 0.415 22.888769783145115 19.46006529716881 -17.18332169663154 0 0 0
7609 369 16 0.415 22.8873074177199 19.45119790276647 -17.162251840100332 0 0 0
7736 412 15 -0.83 18.629090609342835 20.553204669244476 -10.667435110855008 0 0 0
7737 412 16 0.415 17.919303692068393 21.19529629698102 -10.674824567878188 0 0 0
7738 412 16 0.415 17.921742130700334 21.20069442549261 -10.670889193325579 0 0 0
8004 501 16 0.415 20.8298148939487 23.08224524394933 -18.007699832774946 0 0 0
8005 501 16 0.415 20.827095487575725 23.07851546448533 -18.006841016595914 0 0 0
9440 980 15 -0.83 17.852780883376877 18.697792312120445 -18.724219948655257 0 0 1
7568 356 15 -0.83 27.72047258599646 17.469392901575578 -8.275449792170182 0 0 0
6677 59 15 -0.83 25.465160766455572 19.287146713680556 -11.208595927762742 0 0 0
6678 59 16 0.415 25.95558630739479 19.289378203259197 -10.3812290913041 0 0 0
6679 59 16 0.415 25.959514235196508 19.293463879289167 -10.381905067297295 0 0 0
6758 86 15 -0.83 29.572223377080558 21.975336619860744 -12.667361236126947 0 0 0
6759 86 16 0.415 28.834609600045532 22.559990247478442 -12.855607500109292 0 0 0
6760 86 16 0.415 28.836160297842245 22.562762323694663 -12.859900937219775 0 0 0
7070 190 15 -0.83 31.304709002011865 18.85370783853996 -15.439771994400802 0 0 0
7072 190 16 0.415 31.163555901923853 17.90722421917696 -15.545831300316962 0 0 0
7115 205 15 -0.83 24.667058625726828 22.34958915553079 -17.677500996541642 0 0 0
7116 205 16 0.415 24.775470626337107 23.21076388520881 -18.09419383496749 0 0 0
7117 205 16 0.415 24.77271979970535 23.20965439282561 -18.102084642166385 0 0 0
7136 212 15 -0.83 26.35138881906472 23.770992881466896 -8.515677369379334 0 0 0
7137 212 16 0.415 26.695174208866213 24.35758232519253 -7.826083693002494 0 0 0
7138 212 16 0.415 26.69140120188729 24.35980907990778 -7.824450821460505 0 0 0
7273 257 16 0.415 31.026493994961978 23.94617975804759 -9.320924566083601 0 0 0
7343 281 15 -0.83 24.830451673189984 20.42884707458807 -6.270746878789796 0 0 0
7344 281 16 0.415 24.999188421947196 20.616307002140108 -7.19661174857862 0 0 0
7345 281 16 0.415 25.004000371811514 20.61959383606436 -7.196583383239492 0 0 0
7499 333 15 -0.83 25.007056506922773 22.897379220257093 -11.812132858782679 0 0 0
7500 333 16 0.415 25.223542939429077 23.360152204150147 -10.995236291238424 0 0 0
7501 333 16 0.415 25.246181298270326 23.370052158504933 -10.99945002886156 0 0 0
7760 420 15 -0.83 26.579925210962813 20.25928619177883 -15.424366001856875 0 0 0
7761 420 16 0.415 27.34809413220352 20.608461329712902 -15.882555721254784 0 0 0
7762 420 16 0.415 27.35580267955265 20.595658354790217 -15.88768195957913 0 0 0
7934 478 15 -0.83 29.200529603764398 22.695992610463456 -17.961366495265615 0 0 0
7271 257 15 -0.83 31.37655193316371 23.739481298142053 -8.443261870701718 0 0 0
7272 257 16 0.415 31.032347579172637 23.970289362472116 -9.3092227935102 0 0 0
7071 190 16 0.415 31.167810592890106 17.907640561686378 -15.542263147432664 0 0 0
6539 13 15 -0.83 9.752575398245767 28.176726891057957 -7.7168332949439735 0 0 0
6540 13 16 0.415 9.535938988760362 29.145539967344373 -7.6927527474224835 0 0 0
6541 13 16 0.415 9.534282834593466 29.146816387146853 -7.686007747472976 0 0 0
6585 28 16 0.415 16.25364724210321 30.203571162927954 -9.297179204550195 0 0 0
6644 48 15 -0.83 15.821253936123723 25.947390753323116 -17.656990320431944 0 0 0
6645 48 16 0.415 15.899103886146264 25.12433845431691 -18.160207695801528 0 0 0
7028 176 15 -0.83 12.759594684226693 28.331195337269246 -16.727937348918427 0 0 0
7029 176 16 0.415 13.625262506447548 27.908635786920673 -16.795785584138503 0 0 0
7030 176 16 0.415 13.6279244098739 27.91130688859683 -16.79374972576941 0 0 0
7055 185 15 -0.83 12.74536546042432 26.46164549448705 -6.274218160194877 0 0 0
7056 185 16 0.415 13.425997519650812 26.190198238398963 -6.902001285857836 0 0 0
7057 185 16 0.415 13.429748491306533 26.18494074033962 -6.8984929566122535 0 0 0
7238 246 15 -0.83 15.256347879111733 25.563506583117423 -11.449847719210087 0 0 0
7239 246 16 0.415 15.819431543410083 25.741470634292625 -10.690938130639818 0 0 0
7240 246 16 0.415 15.819983045595965 25.753481934105974 -10.690341630505207 0 0 0
7457 319 15 -0.83 13.026802363453925 31.143156464154927 -6.178752932241619 0 0 0
7458 319 16 0.415 12.489603998764572 30.991574551627828 -6.959337479414592 0 0 0
7459 319 16 0.415 12.490982337720348 30.985953672233414 -6.961054974040327 0 0 0
7631 377 15 -0.83 11.860080644003657 26.308994341523935 -10.399005175343497 0 0 0
7632 377 16 0.415 11.98854685058678 25.86694550242977 -11.241755710064307 0 0 0
7633 377 16 0.415 11.986361698417921 25.87022343173038 -11.245327104400292 0 0 0
7869 456 16 0.415 13.612782624486176 31.70807957942096 -17.770518432812 0 0 0
6586 28 16 0.415 16.258261118327724 30.208763445914606 -9.302195634259185 0 0 0
6646 48 16 0.415 15.902913955856503 25.12131943634007 -18.15738957321868 0 0 0
7870 456 16 0.415 13.611817093086739 31.711415207238012 -17.7671141244698 0 0 0
7868 456 15 -0.83 13.071367883159217 31.972866569127763 -18.531010491087194 0 0 0
6563 21 15 -0.83 20.914708232914222 27.21313064909397 -16.663768048001327 0 0 0
6564 21 16 0.415 20.705272006924023 26.72657856716617 -15.864032228495999 0 0 0
6565 21 16 0.415 20.711546760638843 26.726895925710398 -15.859941840609864 0 0 0
6584 28 15 -0.83 16.728841195366893 30.189641338121234 -8.463788596560631 0 0 0
6683 61 15 -0.83 22.12420778849912 31.498837394286088 -10.899009395278235 0 0 0
7034 178 15 -0.83 18.978508156726466 27.511280837084637 -9.213663006517317 0 0 0
7035 178 16 0.415 19.630809871009056 28.15270200101536 -8.92105920006374 0 0 0
7036 178 16 0.415 19.631209362260442 28.156223258522818 -8.925190024862681 0 0 0
7322 274 15 -0.83 17.068078129676437 30.075676513653985 -14.77056761766241 0 0 0
7323 274 16 0.415 17.66319796709752 30.029715138343242 -15.526774643489347 0 0 0
7324 274 16 0.415 17.66999291324866 30.02424667098795 -15.524015835639418 0 0 0
7493 331 15 -0.83 23.845319788861655 25.73396126475613 -17.749882779165063 0 0 0
7495 331 16 0.415 23.678500584980043 26.679919896968435 -17.866426149464115 0 0 0
7712 404 15 -0.83 22.512126380424526 26.95104261462313 -12.6563134527119 0 0 0
7713 404 16 0.415 22.49978684263319 26.64930933216857 -11.7447179287656 0 0 0
7714 404 16 0.415 22.497616502714624 26.653696014319205 -11.741789103985035 0 0 0
7772 424 15 -0.83 18.93806560107431 25.555814156224447 -12.513222450430053 0 0 0
7773 424 16 0.415 18.738815232704685 26.252234631145843 -13.139713241853913 0 0 0
7774 424 16 0.415 18.739663990731533 26.257553680780262 -13.136478184555173 0 0 0
7853 451 15 -0.83 20.66401517491742 30.56818759744387 -15.805081229208753 0 0 0
7854 451 16 0.415 21.487247530330507 30.733874148630925 -16.284430368504967 0 0 0
7855 451 16 0.415 21.486130875959073 30.73360517738503 -16.288655046567566 0 0 0
7494 331 16 0.415 23.68377924463803 26.67955166162893 -17.8614898704563 0 0 0
7480 326 16 0.415 30.888362877832236 31.418980576247556 -16.8259222767217 0 0 0
7943 481 15 -0.83 28.469154475962796 31.866382319258605 -12.246584488088407 0 0 0
6647 49 15 -0.83 27.95554978952011 28.330734457440236 -11.56368736132488 0 0 0
6648 49 16 0.415 28.216401450220875 29.25901580519145 -11.544473627693819 0 0 0
6649 49 16 0.415 28.217885615871964 29.259601256285038 -11.540638546252834 0 0 0
6767 89 15 -0.83 26.202872158627873 29.964439342665816 -15.543076524682917 0 0 0
6768 89 16 0.415 26.056089224838715 29.0663369058911 -15.222342092021503 0 0 0
6769 89 16 0.415 26.062966621677884 29.062180305625365 -15.224549741412963 0 0 0
6857 119 15 -0.83 25.082266159816633 26.994738253289366 -8.72754526936588 0 0 0
6858 119 16 0.415 25.199653539823462 27.635860514692123 -9.438814829750834 0 0 0
6859 119 16 0.415 25.202933992682222 27.633547275222387 -9.442128375017864 0 0 0
7016 172 15 -0.83 28.259578643452926 30.68718055381159 -7.122899139472948 0 0 0
7017 172 16 0.415 27.709368654797597 30.40974666340289 -7.8630923574374165 0 0 0
7018 172 16 0.415 27.707596898155558 30.40534002467463 -7.861734971548557 0 0 0
7211 237 15 -0.83 29.586237643002285 25.20708520986785 -12.532422976770059 0 0 0
7212 237 16 0.415 30.153721709009037 25.82617592846704 -13.008905435213773 0 0 0
7213 237 16 0.415 30.1511200094328 25.827887031818154 -13.012017360803249 0 0 0
7397 299 15 -0.83 26.46282275740892 26.313183313857678 -14.980572511598837 0 0 0
7398 299 16 0.415 26.444674454167174 25.484192415920937 -14.490063091357015 0 0 0
7399 299 16 0.415 26.43790034440225 25.48624539025967 -14.481299513338746 0 0 0
7894 464 16 0.415 31.10338129298682 28.74490533119589 -8.193848759305533 0 0 0
7479 326 16 0.415 30.889495181169583 31.415571359723746 -16.832170826170636 0 0 0
7754 418 15 -0.83 25.184538350410545 29.97511833886526 -10.832414114314547 0 0 0
7755 418 16 0.415 24.59569609927831 30.697160112183266 -11.1011778927901 0 0 0
7756 418 16 0.415 24.595640504896743 30.70065567527356 -11.096760473928436 0 0 0
7892 464 15 -0.83 30.339733527633957 28.1918557047867 -8.378579444910672 0 0 0
7893 464 16 0.415 31.101303805295114 28.746898683218607 -8.19841734635401 0 0 0
6668 56 15 -0.83 16.293454660515287 13.39501414916144 3.6926884031708975 0 0 0
6669 56 16 0.415 15.388783171072472 13.344062152522152 3.368953002071176 0 0 0
6670 56 16 0.415 15.386458165375503 13.349817652594554 3.369869316385801 0 0 0
6680 60 15 -0.83 15.221211688147243 16.315497100609683 -2.6095611204823013 0 0 0
6681 60 16 0.415 14.42431218057939 16.81563174038565 -2.425529924690879 0 0 0
7073 191 15 -0.83 16.095933936359632 11.71037848693566 0.454310468629632 0 0 0
7075 191 16 0.415 16.433791585740696 10.770128205843998 0.35762453194220467 0 0 0
7265 255 15 -0.83 9.706360316764375 16.678673896610846 5.317488201753838 0 0 0
7307 269 15 -0.83 13.006772082566652 16.353776790513553 4.185819222512039 0 0 0
7308 269 16 0.415 12.53997656631221 16.245509215194282 5.01825153814031 0 0 0
7309 269 16 0.415 12.543418600941042 16.2482030525551 5.0222444618325905 0 0 0
7724 408 15 -0.83 10.199883250365996 15.507805696745965 -3.533444394944008 0 0 0
7725 408 16 0.415 10.646980239529503 15.910477265166724 -4.276381866758405 0 0 0
7726 408 16 0.415 10.649990508546283 15.905206916885033 -4.279650516575901 0 0 0
7994 498 15 -0.83 10.897770141638466 11.892590859167337 4.3729466814170275 0 0 0
7995 498 16 0.415 11.80576997859579 12.129314994626704 4.5577845724927 0 0 0
7996 498 16 0.415 11.806162339033946 12.129378657836968 4.564496700519778 0 0 0
6682 60 16 0.415 14.425798897570353 16.81919629059253 -2.4212799587334604 0 0 0
7074 191 16 0.415 16.445395730781147 10.77804623185445 0.3604142836563302 0 0 0
6554 18 15 -0.83 22.995150903024147 12.908007053911023 3.99811414873528 0 0 0
6555 18 16 0.415 23.20666555884556 11.991360706276751 4.182976836097796 0 0 0
6556 18 16 0.415 23.20251322448308 11.988033492717346 4.179495970866764 0 0 0
6656 52 15 -0.83 18.97397615703674 15.028712575495202 -1.1448942724186038 0 0 0
6657 52 16 0.415 18.53776184159547 14.903447459117288 -0.29139428409209184 0 0 0
6658 52 16 0.415 18.539747472371086 14.907250314708774 -0.28832333929277704 0 0 0
6815 105 15 -0.83 18.440795991297914 16.047633254264127 -4.730252978488861 0 0 0
6816 105 16 0.415 18.37006819685068 16.090232589173446 -3.7714790640704723 0 0 0
6817 105 16 0.415 18.37216131048601 16.094275192901065 -3.7703223978394114 0 0 0
6944 148 15 -0.83 22.735316979694996 13.396901344155419 -1.9369309667084198 0 0 0
6945 148 16 0.415 22.349567841395782 14.274763427878506 -1.933403233755322 0 0 0
6946 148 16 0.415 22.351667539993702 14.277631022146636 -1.9394508161354613 0 0 0
7418 306 15 -0.83 21.596098646016273 16.266816194225253 5.387322991725404 0 0 0
7419 306 16 0.415 21.839754507324137 15.637253384316601 4.706120456013825 0 0 0
7420 306 16 0.415 21.84652900091857 15.646649242334057 4.693931210267117 0 0 0
7484 328 15 -0.83 19.752660361080398 14.273716655797609 2.5384060127608263 0 0 0
7485 328 16 0.415 19.056338152915156 14.034058496651602 3.1613934249326947 0 0 0
7486 328 16 0.415 19.050684779516974 14.048646437374448 3.167150921995854 0 0 0
7735 411 16 0.415 22.091207587272503 17.10008764787519 0.3265473913197312 0 0 0
7734 411 16 0.415 22.088417971556165 17.09945693131057 0.32019495390998504 0 0 0
7133 211 15 -0.83 31.267101844714208 16.342268337873303 3.7351574554240004 0 0 0
7656 385 16 0.415 26.456239801253083 16.674606782656586 0.49608779808063447 0 0 0
7919 473 15 -0.83 26.53502354419976 12.323918446054227 -0.26932340846686553 0 0 0
7920 473 16 0.415 26.53900908361381 12.797665298431673 -1.1025485394436232 0 0 0
7921 473 16 0.415 26.540893924310282 12.802742842628927 -1.1012581747109431 0 0 0
7657 385 16 0.415 26.456834608905996 16.67691966123735 0.48969587779697304 0 0 0
6530 10 15 -0.83 10.681908680794256 20.843025951462252 5.347789448380321 0 0 0
6531 10 16 0.415 10.984952709145015 21.556181929905364 4.773076468134199 0 0 0
6532 10 16 0.415 10.986307744145293 21.559379472165954 4.775880398109813 0 0 0
7266 255 16 0.415 9.521563266732453 17.62269427864618 5.284247127628248 0 0 0
7267 255 16 0.415 9.521122422451402 17.62757325216836 5.300709649929132 0 0 0
7439 313 15 -0.83 10.562777618171028 23.946681102885695 -3.3400202997008366 0 0 0
7805 435 15 -0.83 9.701129770660476 20.028068230096377 -5.657266738258622 0 0 0
7806 435 16 0.415 10.653331087479915 20.091382404217157 -5.482331397335605 0 0 0
7859 453 15 -0.83 15.936233541509306 23.41336330822834 1.3953676443422536 0 0 0
7886 462 15 -0.83 11.410641887483754 22.537176976211164 1.816957572655757 0 0 0
7887 462 16 0.415 11.704201642255432 22.46468625830924 0.9018326402418003 0 0 0
7888 462 16 0.415 11.699511068623794 22.464605787671054 0.8988693631197626 0 0 0
7807 435 16 0.415 10.659310420510737 20.097197167237567 -5.4954210342039005 0 0 0
7861 453 16 0.415 16.771966396970196 23.200625012545753 0.9708623263439802 0 0 0
772 1 2 0.0 17.78492869561931 22.973857253372593 6.564910788266499 0 0 0
7409 303 15 -0.83 18.136514614378246 17.42006517569696 5.43920787985564 0 0 0
7410 303 16 0.415 18.041628675084237 18.282012773480993 5.845096635536804 0 0 0
7411 303 16 0.415 18.044423085911067 18.281431074436583 5.850707887541178 0 0 0
7664 388 15 -0.83 21.246782575731743 20.963395444709086 -3.9785603645125054 0 0 0
7665 388 16 0.415 20.979467864566214 20.055243499483048 -4.139667989881703 0 0 0
7666 388 16 0.415 20.974886912636286 20.054642311324617 -4.13680223330155 0 0 0
7733 411 15 -0.83 22.46730680190545 17.82328248053316 -0.1816425909570822 0 0 0
7860 453 16 0.415 16.773162541186604 23.200765810269854 0.9764815627058675 0 0 0
7538 346 15 -0.83 31.433854671400773 24.36618913233246 -4.307749012766945 0 0 0
6512 4 15 -0.83 28.974514248486294 18.441143494007676 -4.279221551992602 0 0 0
6513 4 16 0.415 28.11931561801753 18.713565708354345 -4.6280735785748215 0 0 0
6514 4 16 0.415 28.116174611976994 18.713500091403976 -4.623990068919118 0 0 0
6785 95 15 -0.83 25.049510994548537 20.99587349494568 5.54710059788637 0 0 0
6786 95 16 0.415 25.42589390501408 21.502456679386384 4.824604509566116 0 0 0
6787 95 16 0.415 25.422910977639578 21.5007859793852 4.819959305388294 0 0 0
7109 203 15 -0.83 24.978682543084364 22.502787144548186 -2.3981773870179066 0 0 0
7110 203 16 0.415 24.26811801601286 22.005989211816747 -2.8264198477440767 0 0 0
7111 203 16 0.415 24.269300880391093 22.001431570929718 -2.82578491171542 0 0 0
7577 359 15 -0.83 27.868580702011673 22.08649055213254 -4.384935676023116 0 0 0
7578 359 16 0.415 27.452680996265425 22.62826315864167 -3.7061695668890913 0 0 0
7579 359 16 0.415 27.45488819150168 22.6268599176315 -3.7019235674050397 0 0 0
7655 385 15 -0.83 26.179206619041846 17.43715461700195 1.0021018302258222 0 0 0
7976 492 15 -0.83 28.482997219654507 22.807138503301946 4.481060570926097 0 0 0
7977 492 16 0.415 29.423256693799587 22.88337697939051 4.312645802644073 0 0 0
7978 492 16 0.415 29.42487952229411 22.87776178975734 4.310031154399833 0 0 0
7748 416 15 -0.83 9.147585649584958 27.965429654531903 -5.014474031706883 1 0 0
7440 313 16 0.415 10.77863451171288 24.72939264406795 -3.8540993760224986 0 0 0
6560 20 15 -0.83 15.625927133653741 31.65684526495767 -2.909238012066267 0 0 0
6561 20 16 0.415 15.124613828707721 31.16177481638329 -3.5687686475544997 0 0 0
6562 20 16 0.415 15.11860307369178 31.161656560990235 -3.5664718085851557 0 0 0
6761 87 15 -0.83 14.367109523598334 29.721867394456684 4.981971186295727 0 0 0
6762 87 16 0.415 14.80194138945007 29.317415045054016 5.735689020184092 0 0 0
6763 87 16 0.415 14.80775337557336 29.316474098119357 5.733804022728334 0 0 0
6770 90 15 -0.83 14.15200615461952 28.267264069059916 -3.224577544102421 0 0 0
6771 90 16 0.415 14.309578707760563 27.624526302250082 -3.920873707168335 0 0 0
6772 90 16 0.415 14.312776401448954 27.627248960033935 -3.9246065941907187 0 0 0
7081 193 16 0.415 15.275700021777865 32.04759259257353 2.6878280158198353 0 0 0
7127 209 15 -0.83 10.042705066942903 30.780798780502323 -3.998612438442199 0 0 0
7128 209 16 0.415 10.197723525619006 29.82987748032176 -3.980827400152244 0 0 0
7129 209 16 0.415 10.191727752287644 29.826909950969746 -3.9843767332003095 0 0 0
7415 305 15 -0.83 11.00388108422763 26.010985039797635 3.6774684046351434 0 0 0
7416 305 16 0.415 10.540901901110011 25.542458512151917 2.98260514516385 0 0 0
7417 305 16 0.415 10.540593489341653 25.53641126437803 2.9846775366937317 0 0 0
7441 313 16 0.415 10.774678403152949 24.729560089370402 -3.8581651501602265 0 0 0
7454 318 15 -0.83 15.116795050374664 27.77884498044903 1.2426078577933057 0 0 0
7455 318 16 0.415 14.181283023138404 27.982875383754624 1.162066120707728 0 0 0
7456 318 16 0.415 14.181007796044256 27.987411585973614 1.1575109231831833 0 0 0
7080 193 16 0.415 15.271652140044985 32.05011868271327 2.690629580480391 0 0 0
7535 345 15 -0.83 18.007309339849954 25.772258776397052 -0.8839622473601233 0 0 0
7536 345 16 0.415 17.723726009038806 26.559175385878326 -0.4076122496561224 0 0 0
7537 345 16 0.415 17.717346731857788 26.55975058059964 -0.40903640973648925 0 0 0
7562 354 15 -0.83 18.783790033608874 29.300055001365298 -3.809654505278938 0 0 0
7563 354 16 0.415 19.030796888175693 29.759948200291404 -4.615112538985293 0 0 0
7564 354 16 0.415 19.028105093576617 29.757287623529745 -4.619099339605842 0 0 0
7565 355 15 -0.83 22.027159231078084 28.444344806165322 3.3960208953239657 0 0 0
7566 355 16 0.415 22.34855286911347 27.655274009564476 3.843220295399097 0 0 0
7567 355 16 0.415 22.35367753288304 27.655065198613297 3.8420112939048834 0 0 0
7697 399 15 -0.83 18.892052850792744 29.64124074717749 3.2201622587744074 0 0 0
7698 399 16 0.415 19.688431600640186 29.841368207570294 2.7240371417468943 0 0 0
7699 399 16 0.415 19.689736015388668 29.830441267412123 2.714746474365956 0 0 0
7814 438 15 -0.83 22.66896981961846 27.830069633720413 -0.6333294059269311 0 0 0
7815 438 16 0.415 22.70500149095853 28.771696833097334 -0.46776645246877346 0 0 0
7816 438 16 0.415 22.708778019500215 28.772283480206585 -0.4625074000645747 0 0 0
7967 489 15 -0.83 18.122363230596033 31.36368942544593 -0.12386662252520214 0 0 0
7968 489 16 0.415 18.10226984448596 30.87086520815496 -0.9497219591016001 0 0 0
7969 489 16 0.415 18.099613220344615 30.86643318878967 -0.9485591040290487 0 0 0
7908 469 16 0.415 24.586773723108024 26.19846450766205 -3.83520298557871 0 0 0
7907 469 15 -0.83 24.22378942971786 27.049078371423896 -4.091628737256711 0 0 0
7909 469 16 0.415 24.5889366198417 26.196152892899118 -3.8403018502300807 0 0 0
6935 145 15 -0.83 30.54328163062305 29.507090631932545 -1.7543880118893742 0 0 0
6936 145 16 0.415 29.683864675494352 29.83103925618941 -2.04271688644262 0 0 0
6937 145 16 0.415 29.673600318476733 29.827172437037998 -2.0303121255278236 0 0 0
6992 164 15 -0.83 27.5314904731052 27.008257331431867 -4.262841298188928 0 0 0
6993 164 16 0.415 28.379896082707194 27.434151749258408 -4.400384085186606 0 0 0
6994 164 16 0.415 28.381705421193647 27.432312889531545 -4.406464525961067 0 0 0
7749 416 16 0.415 9.125256697133175 27.272548074346208 -5.698621302840805 1 0 0
7750 416 16 0.415 9.127020985762655 27.274812219643035 -5.702773499607519 1 0 0
14 1 1 -0.0399 11.036080862824258 13.546498503263932 14.329713157701622 0 0 0
18 1 1 0.0692 12.416791939041556 11.982888120488823 16.188393459654204 0 0 0
19 1 2 0.0 14.303199635167255 15.033105075817653 14.023226961925724 0 0 0
30 1 1 0.5496 15.759492760338286 16.430155500914324 14.787266849459877 0 0 0
39 1 1 0.3365 12.94811459986076 17.052944368769527 18.047804838520854 0 0 0
41 1 2 0.0 13.89583324638706 16.605455676779954 18.361620843929124 0 0 0
43 1 1 -0.0399 12.287310538474957 11.508881884911844 14.859012316248403 0 0 0
44 1 4 -0.4748 12.150331523871726 12.783565012909744 18.902198925709726 0 0 0
45 1 1 -0.2772 15.250168133546248 15.152513921620438 14.541840364020166 0 0 0