LAMMPS data file via write_data, version 29 Oct 2020, timestep = 1250

8539 atoms
16 atom types
8369 bonds
19 bond types
11729 angles
24 angle types
19475 dihedrals
42 dihedral types

11.246593 53.753407 xlo xhi
11.246593 53.753407 ylo yhi
-18.752 84.792 zlo zhi

Masses

1 12.01
2 1.008
3 12.01
4 16
5 14.01
6 1.008
7 16
8 14.01
9 1.008
10 12.01
11 14.01
12 12.01
13 1.008
14 16
15 15.9994
16 1.008

Pair Coeffs # lj/cut/coul/long/omp

1 0.086 3.39967
2 0.015 2.59964
3 0.086 3.39967
4 0.21 2.95992
5 0.17 3.25
6 0.0157 1.06908
7 0.2104 3.06647
8 0.17 3.25
9 0 0
10 0.086 3.39967
11 0.17 3.25
12 0.086 3.39967
13 0.0157 1.06908
14 0.2104 3.06647
15 0.102 3.188
16 0 0

Atoms # full

7190 152 15 -0.83 16.591060872150425 17.032890678410226 -12.813996551823916 0 0 0
7191 152 16 0.415 16.79892171688301 17.960897767783848 -12.950260922253126 0 0 0
7192 152 16 0.415 16.82638293399329 17.96230152975625 -12.947516095257264 0 0 0
7304 190 15 -0.83 15.638198290300794 13.296284736037133 -11.488266615613298 0 0 0
7306 190 16 0.415 16.197723512943906 13.81335921683162 -12.08542083965417 0 0 0
6926 64 15 -0.83 11.732207349579351 18.278438515264302 -13.451792987877912 0 0 0
7305 190 16 0.415 16.186883624863665 13.831736480573595 -12.067003614646168 0 0 0
7259 175 15 -0.83 14.58904644540638 12.194104695228516 -8.220690719328658 0 0 0
7260 175 16 0.415 14.759573961367563 12.13434397497848 -9.163310236291132 0 0 0
7261 175 16 0.415 14.78431674147061 12.12587637711153 -9.16496803162926 0 0 0
7589 285 15 -0.83 17.160975910810176 16.442662836627676 -7.976944075391358 0 0 0
7590 285 16 0.415 17.34959746896354 15.591450098028023 -8.365657666662203 0 0 0
7591 285 16 0.415 17.367334082623923 15.600360230122403 -8.401729254592906 0 0 0
7583 283 15 -0.83 21.022553131975766 18.09983775021349 -14.437647888198091 0 0 0
7584 283 16 0.415 21.157507265316095 17.38655629231967 -15.052649394241682 0 0 0
7585 283 16 0.415 21.175954593869243 17.401096711751155 -15.079125419073844 0 0 0
7069 111 16 0.415 19.508201917927963 18.294949410710643 -7.116658470616311 0 0 0
7103 123 15 -0.83 20.250685211121404 13.649877611298649 -7.130881916056223 0 0 0
7104 123 16 0.415 21.121956003707425 13.5229056926775 -7.504918199666411 0 0 0
7105 123 16 0.415 21.12242852829345 13.54111317527815 -7.529581353656299 0 0 0
7068 111 16 0.415 19.506735268788294 18.32368877602068 -7.104135723545127 0 0 0
6767 11 15 -0.83 29.394452659262985 16.035471058996894 -14.707732539508411 0 0 0
6768 11 16 0.415 28.588794625331268 16.514643019937008 -14.877700504946679 0 0 0
6769 11 16 0.415 28.59521855767492 16.53244343895586 -14.908507487488224 0 0 0
7151 139 15 -0.83 31.591051989714337 16.121893534353152 -11.346671094831333 0 0 0
7153 139 16 0.415 31.41948258851742 16.891620099551407 -11.904103712249613 0 0 0
7265 177 15 -0.83 26.48961006449749 15.474744713612314 -18.545244658005707 0 0 0
7266 177 16 0.415 26.490639537929283 15.430544493669544 -17.587077689814546 0 0 0
7267 177 16 0.415 26.47045094685187 15.499807904136311 -17.565501989924435 0 0 0
7152 139 16 0.415 31.412072656340698 16.89999047436639 -11.875291808924963 0 0 0
6959 75 15 -0.83 26.432106693256056 14.191928168872101 -6.330550242431398 0 0 0
7109 125 15 -0.83 27.714165300812162 15.2120556477978 -10.235192661587568 0 0 0
7110 125 16 0.415 27.030539711242096 15.759987682811932 -9.855826396956338 0 0 0
7111 125 16 0.415 27.034485159943678 15.756852710229857 -9.823839408480858 0 0 0
7551 272 16 0.415 32.253173743729604 12.868048630541855 -9.21057438432778 0 0 0
7552 272 16 0.415 32.25311849949582 12.894533015285445 -9.198788976668162 0 0 0
6927 64 16 0.415 12.654070724593018 18.47787286268413 -13.305231797500307 0 0 0
6928 64 16 0.415 12.655156502697247 18.490169128715284 -13.273586395627344 0 0 0
7568 278 15 -0.83 15.707575058367986 23.403752428921667 -17.75873109027059 0 0 0
7569 278 16 0.415 14.867915300419952 22.95146430158192 -17.843081439747106 0 0 0
7570 278 16 0.415 14.857725145882188 22.949061119793075 -17.81465101228234 0 0 0
7322 196 15 -0.83 11.271798583507243 23.89329234849328 -13.977579174557185 1 0 0
6865 43 16 0.415 12.237481613094817 22.41749088681156 -10.907230224825595 0 0 0
6863 43 15 -0.83 13.073479041007218 22.41135014424562 -10.427652807566414 0 0 0
6864 43 16 0.415 12.230507241371942 22.424078768928645 -10.877281337298346 0 0 0
7390 218 16 0.415 24.425123884008272 18.537406807965333 -13.445298943908575 0 0 0
7082 116 15 -0.83 24.49606630219673 22.913005313065568 -14.223022373037383 0 0 0
7083 116 16 0.415 25.02249757023453 23.659195536052966 -13.953678491981547 0 0 0
7084 116 16 0.415 25.017868177626905 23.66117056318299 -13.92044627708349 0 0 0
7181 149 15 -0.83 18.808298235850092 24.421514611797353 -15.72159509946315 0 0 0
7182 149 16 0.415 18.71434556128994 24.224214274478275 -16.652586436708354 0 0 0
7183 149 16 0.415 18.70506025187187 24.193998223773 -16.653355828695773 0 0 0
7388 218 15 -0.83 24.584109132763345 19.29256729458532 -14.021750350265219 0 0 0
7389 218 16 0.415 24.398697429040062 18.570707113903836 -13.430869092089033 0 0 0
7482 249 16 0.415 19.404279775035917 21.341663529727366 -11.593837518692604 0 0 0
7483 249 16 0.415 19.37233137504571 21.34701544827719 -11.59056819991798 0 0 0
7077 114 16 0.415 24.35667066341098 18.91834020639917 -9.20255481201327 0 0 0
6839 35 15 -0.83 21.186786612267877 24.720001416429778 -9.161861429722409 0 0 0
6841 35 16 0.415 20.76865053345179 25.148876630909818 -8.406622559891398 0 0 0
7067 111 15 -0.83 20.28132534201075 18.379287887712525 -6.540612475177762 0 0 0
7076 114 15 -0.83 24.84900961269171 18.54526114842466 -9.936281459194516 0 0 0
7078 114 16 0.415 24.358745563865597 18.946591671665043 -9.206196415147586 0 0 0
7307 191 15 -0.83 21.09388067202112 21.80600088255534 -6.967163207923377 0 0 0
7308 191 16 0.415 21.655457206071667 21.920255633665402 -6.2028968126362924 0 0 0
7309 191 16 0.415 21.685011039851496 21.922197258411387 -6.214925567105576 0 0 0
7481 249 15 -0.83 19.5315203826724 20.45021934629397 -11.269940058969622 0 0 0
6840 35 16 0.415 20.796969729955137 25.16601639451462 -8.412807125405548 0 0 0
6782 16 15 -0.83 28.20187216576169 20.009788007310043 -14.565742452037137 0 0 0
6783 16 16 0.415 28.11459456278916 20.96312669161217 -14.578162998677819 0 0 0
6784 16 16 0.415 28.149351273193407 20.975561600070467 -14.582806396047255 0 0 0
6878 48 15 -0.83 27.539324740851477 23.616081503730463 -12.232156899654887 0 0 0
6879 48 16 0.415 28.169532353484485 23.439756169104857 -11.52865611689148 0 0 0
7391 219 15 -0.83 31.945512217970155 21.00131393539402 -11.48174499001285 0 0 0
7392 219 16 0.415 32.1018733950207 21.942388212218944 -11.545502417723203 0 0 0
7393 219 16 0.415 32.13022494070582 21.945951315790733 -11.536102378382818 0 0 0
7227 164 16 0.415 25.76249483179835 18.740869022777026 -6.186783514289848 0 0 0
6880 48 16 0.415 28.155209767864733 23.442204485183865 -11.506030276490183 0 0 0
7228 164 16 0.415 25.79108189960475 18.718594861452836 -6.216519004498914 0 0 0
7472 246 15 -0.83 28.77339709270863 19.18200414704727 -9.451478553338083 0 0 0
7473 246 16 0.415 28.520340641968822 19.58469546122195 -10.276615711810232 0 0 0
7474 246 16 0.415 28.509953553049076 19.55858971879059 -10.29600294144377 0 0 0
7115 127 15 -0.83 32.277721825237535 23.044420047757672 -6.420858546170952 0 0 0
6873 46 16 0.415 16.8404629177686 27.462934626944612 -11.743512607058657 0 0 0
7317 194 16 0.415 12.26827586294818 31.8840333491639 -16.904067342610077 0 0 0
7318 194 16 0.415 12.289034050681929 31.884504616897345 -16.87979453878259 0 0 0
6874 46 16 0.415 16.849613920407112 27.43771249356064 -11.732396246210348 0 0 0
6872 46 15 -0.83 16.440348127047905 27.920473909821336 -11.001944140357859 0 0 0
7301 189 15 -0.83 17.83447316687408 26.338937261479586 -7.576716251047112 0 0 0
7302 189 16 0.415 16.971570974857382 26.626670236267863 -7.273226951526618 0 0 0
7303 189 16 0.415 16.97072295195154 26.65471737966123 -7.279524204230275 0 0 0
7358 208 15 -0.83 13.08961598846441 27.25390709931964 -8.72296433116434 0 0 0
7359 208 16 0.415 14.037609410350022 27.32075469154375 -8.665813393853432 0 0 0
7360 208 16 0.415 14.044238650107877 27.35695915526284 -8.665213988865327 0 0 0
7534 266 16 0.415 17.903845650192917 31.928863476645866 -7.077107399738785 0 0 0
7546 270 16 0.415 14.232852710688455 32.13747694422977 -10.444317104961321 0 0 0
7533 266 16 0.415 17.89194211376877 31.953758604546902 -7.050872020537357 0 0 0
7545 270 16 0.415 14.223099051300094 32.16695555839746 -10.439802764068945 0 0 0
6885 50 16 0.415 25.236562057492907 26.92621040288345 -13.737213115986826 0 0 0
6953 73 15 -0.83 20.633920291279747 27.684008016594614 -16.363487856077064 0 0 0
6954 73 16 0.415 21.27944225292413 28.382854157640924 -16.362013818588206 0 0 0
6955 73 16 0.415 21.285016545270157 28.389696437568762 -16.395985349248388 0 0 0
7221 162 16 0.415 24.54913504153821 32.49650882940336 -16.44276519174746 0 0 0
6886 50 16 0.415 25.242579989900552 26.932976136851753 -13.70826813978198 0 0 0
7222 162 16 0.415 24.535183064931406 32.499915293226266 -16.473615283564538 0 0 0
6950 72 15 -0.83 25.113061790182176 28.00177607929494 -6.0145734242268984 0 0 0
6989 85 15 -0.83 25.118629874636436 31.244134474130597 -10.903326165186087 0 0 0
6990 85 16 0.415 25.157242666577446 31.360695080655283 -9.95400392610865 0 0 0
7458 241 16 0.415 21.45955151166841 31.562327994969685 -6.14468499909854 0 0 0
7459 241 16 0.415 21.4606063786813 31.536628607825484 -6.164962001473267 0 0 0
6991 85 16 0.415 25.176759037055216 31.33568049011041 -9.943299625639407 0 0 0
7434 233 16 0.415 31.494855722508504 26.155241702406972 -12.117689393933018 0 0 0
6824 30 15 -0.83 29.305057999459798 29.32379893518348 -17.735337922221245 0 0 0
6825 30 16 0.415 28.4497479573711 29.022648315953976 -18.03873166951828 0 0 0
6826 30 16 0.415 28.456931276119736 29.003015472633624 -18.06735862650327 0 0 0
6884 50 15 -0.83 26.066739193876252 27.061577936781976 -14.191719370568219 0 0 0
7088 118 15 -0.83 29.38304095276843 29.661632725168772 -12.191761049432746 0 0 0
7089 118 16 0.415 28.774072116962117 28.943789449283887 -12.366262583421985 0 0 0
7090 118 16 0.415 28.768574258405636 28.945757431260734 -12.393882982950505 0 0 0
7433 233 15 -0.83 30.54872216662109 26.12696541814701 -11.985811650829342 0 0 0
7435 233 16 0.415 31.4998966429801 26.182375410609843 -12.131870861671613 0 0 0
7440 235 16 0.415 31.93212241258457 29.347936715945597 -17.01428384335708 0 0 0
7441 235 16 0.415 31.932884168200815 29.361381425041447 -17.0414492474974 0 0 0
7454 240 15 -0.83 30.811017501572383 32.44060756531731 -16.862522375335647 0 0 0
7294 186 16 0.415 28.280391486630872 25.683923051243912 -7.02441466563124 0 0 0
6905 57 15 -0.83 28.399295481805442 29.558055197234154 -7.1872330618907885 0 0 0
6906 57 16 0.415 28.765362849784154 30.423652170895053 -7.3956337687104625 0 0 0
6907 57 16 0.415 28.759997497905736 30.427171352097826 -7.423889203528015 0 0 0
6951 72 16 0.415 25.79290593143734 28.650030769060372 -6.210209545519722 0 0 0
6952 72 16 0.415 25.795238385891903 28.663557569324045 -6.1886409362932735 0 0 0
6977 81 15 -0.83 25.904590770825966 32.13808340325327 -6.926980822934599 0 0 0
7085 117 15 -0.83 32.491705265735405 27.05262547086019 -6.43716331928587 0 0 0
7086 117 16 0.415 31.770514698890604 27.60034540831173 -6.75512636064726 0 0 0
7087 117 16 0.415 31.759946252221194 27.612007333313507 -6.732105468275422 0 0 0
7292 186 15 -0.83 28.973801677657676 25.66168668548452 -7.694490421288262 0 0 0
7293 186 16 0.415 28.29289940848091 25.70939834873692 -7.023653152274122 0 0 0
7107 124 16 0.415 16.44944797377846 12.881666669180705 -3.634948187857408 0 0 0
7106 124 15 -0.83 16.481249794092864 13.731673119049931 -3.1719779926717027 0 0 0
7108 124 16 0.415 16.43662704249624 12.856705505285435 -3.6083974906364005 0 0 0
7157 141 15 -0.83 12.706651450027445 13.464060042000778 -1.2159540158102646 0 0 0
7158 141 16 0.415 11.848560355179693 13.751193552851488 -0.8455834257897742 0 0 0
7159 141 16 0.415 11.852591982267366 13.777211342043676 -0.8383988225198608 0 0 0
7193 153 15 -0.83 15.38197111695401 17.30167401590291 -0.6370860059519279 0 0 0
7194 153 16 0.415 15.462502323420342 16.441317402872798 -0.22398396482873317 0 0 0
7195 153 16 0.415 15.4460216791512 16.42108885345943 -0.24390066594929238 0 0 0
7298 188 15 -0.83 15.913483785527587 13.273476609469265 1.1026178173672838 0 0 0
7299 188 16 0.415 15.57738514324722 12.424829465830937 0.8019209487328994 0 0 0
7300 188 16 0.415 15.599257225833187 12.413120071560297 0.7876767141858377 0 0 0
6930 65 16 0.415 20.6656260001218 15.518863801036687 -4.527859822379084 0 0 0
6931 65 16 0.415 20.634956631881973 15.516440688412086 -4.528992688104287 0 0 0
6779 15 15 -0.83 18.685505636676133 15.946973784854869 0.6644742644623288 0 0 0
6780 15 16 0.415 18.433754194445296 15.08205419008795 0.35924828345224796 0 0 0
6781 15 16 0.415 18.4130939757881 15.05470308484052 0.40795599092416734 0 0 0
6809 25 15 -0.83 24.98625794314006 12.085642469317994 -3.983898765463022 0 0 0
6810 25 16 0.415 24.35767896135805 11.646278009483796 -3.401836221350942 0 0 0
6811 25 16 0.415 24.334660508835782 11.660611803183537 -3.4046025143739973 0 0 0
6929 65 15 -0.83 20.926904560662482 14.920741123129101 -3.8285698335327734 0 0 0
7034 100 15 -0.83 22.40763537247749 12.216778208036084 -0.6530840208543253 0 0 0
7035 100 16 0.415 21.597722338142205 11.853089006090078 -0.3008212457666177 0 0 0
7036 100 16 0.415 21.573575629877354 11.86537924385988 -0.3208489272689762 0 0 0
7205 157 15 -0.83 21.32320530421643 17.09612387256513 -1.214210040562787 0 0 0
7206 157 16 0.415 22.146664430309194 17.238480939640237 -0.7521676302342938 0 0 0
7207 157 16 0.415 22.140225933156866 17.232743811177595 -0.7234369685523281 0 0 0
7058 108 15 -0.83 23.096913387859864 16.475642059749685 4.775710286669555 0 0 0
7059 108 16 0.415 22.1472905231037 16.535314452594694 4.848731475039177 0 0 0
7060 108 16 0.415 22.13752426960765 16.504939285440503 4.850898676911948 0 0 0
7400 222 15 -0.83 23.913883082445874 12.399517861349665 6.129991112794347 0 0 0
7401 222 16 0.415 23.71961145236637 11.834691128566305 5.387975074894966 0 0 0
7402 222 16 0.415 23.727090177251046 11.853433833612188 5.3609405589740255 0 0 0
7505 257 15 -0.83 18.87446577159765 13.458577581442285 4.734037135250006 0 0 0
7506 257 16 0.415 18.798207953852035 12.80322155730506 5.419869034239566 0 0 0
7507 257 16 0.415 18.798580692252816 12.820887624245817 5.448420051422844 0 0 0
6960 75 16 0.415 26.431900701278277 14.027541785154833 -5.384172699094286 0 0 0
6961 75 16 0.415 26.41649602556502 14.05702623751643 -5.369890773390726 0 0 0
6766 10 16 0.415 31.26156209675491 16.206012795213894 -3.446998652077798 0 0 0
6764 10 15 -0.83 31.091017028734765 17.005584245763984 -2.935095277101149 0 0 0
6765 10 16 0.415 31.245980045910173 16.195595785719537 -3.41702388798068 0 0 0
6887 51 15 -0.83 27.0537928955054 15.7058858529281 -1.9212341441247955 0 0 0
6888 51 16 0.415 27.07027690226028 15.288742355140515 -1.0588634662079017 0 0 0
6889 51 16 0.415 27.045652719792056 15.29618769021852 -1.0469160131996762 0 0 0
7556 274 15 -0.83 28.68801912874667 14.331066836049208 1.2567969381635435 0 0 0
7557 274 16 0.415 28.371241099761292 13.91804687272626 2.057633908602429 0 0 0
7558 274 16 0.415 28.369364488027205 13.942341139786267 2.0790891994136746 0 0 0
6807 24 16 0.415 15.264699083770882 25.05903000490901 -0.5484239527687386 0 0 0
6962 76 15 -0.83 14.001083856873558 20.344109907453515 1.3429206179233775 0 0 0
6963 76 16 0.415 14.101465626853283 19.514722608688658 1.8114443517552776 0 0 0
6964 76 16 0.415 14.122182533625605 19.520082393327115 1.8314631160273567 0 0 0
7613 293 15 -0.83 11.334452119063 23.810413777022102 0.5630035332881778 0 0 0
7614 293 16 0.415 12.280937675271414 23.663682050457208 0.6429669290177061 0 0 0
7615 293 16 0.415 12.289463971143617 23.635749285898967 0.713017833494672 0 0 0
6808 24 16 0.415 15.250903252891547 25.08564962918513 -0.5625564158615981 0 0 0
6806 24 15 -0.83 15.620522698513124 25.383742338340916 0.27375971737546806 0 0 0
7283 183 15 -0.83 22.151415544810718 25.091418187399555 -4.154579515283327 0 0 0
7284 183 16 0.415 21.646690134461576 25.315540214493364 -4.934279423726396 0 0 0
7285 183 16 0.415 21.616882533381567 25.324220383721528 -4.922631680226317 0 0 0
7061 109 15 -0.83 21.55264354066731 20.794973095688402 -1.1615857037111288 0 0 0
7062 109 16 0.415 20.755391185692094 21.0211649048109 -1.6394471793909633 0 0 0
7063 109 16 0.415 20.7634263928909 21.01899846568791 -1.6694400170485606 0 0 0
7490 252 15 -0.83 24.333805238118074 20.6368216004007 0.36763998747973053 0 0 0
7491 252 16 0.415 23.90724771960562 21.430459025908505 0.042267873839745035 0 0 0
7492 252 16 0.415 23.920773857531493 21.435966298109363 0.015619247024807608 0 0 0
7051 105 16 0.415 29.911439734018142 23.183996022695414 -4.102856053867581 0 0 0
7097 121 15 -0.83 30.505369994188662 20.286635595022968 -4.135080345015767 0 0 0
7098 121 16 0.415 29.952768775862015 19.560092220404666 -3.829665203731818 0 0 0
7226 164 15 -0.83 26.337051555210728 19.06130577969451 -5.502741777674224 0 0 0
7469 245 15 -0.83 25.62547289048074 22.66584643694843 -5.185285260432847 0 0 0
7470 245 16 0.415 26.558154155525838 22.873392329166045 -5.274019515751533 0 0 0
7471 245 16 0.415 26.5684065667416 22.853446488397655 -5.293937519301339 0 0 0
7049 105 15 -0.83 29.11249988610372 23.73648222693612 -4.126441032726763 0 0 0
7593 286 16 0.415 25.912763525027025 24.338201554075198 2.2122795500432604 0 0 0
6869 45 15 -0.83 31.29576792341078 20.58081391179812 1.534785537145107 0 0 0
6870 45 16 0.415 31.34304679811809 20.824864815593052 0.6084711619999902 0 0 0
6871 45 16 0.415 31.318110508573227 20.817353438672303 0.5979507029711467 0 0 0
7050 105 16 0.415 29.909377732312258 23.195897105655103 -4.077268538726341 0 0 0
7099 121 16 0.415 29.957604507311476 19.55877065967928 -3.8016246482880103 0 0 0
7328 198 15 -0.83 31.675700738157545 23.98253950111476 1.7727142371584073 0 0 0
7329 198 16 0.415 31.510482038712272 24.398870612534427 2.61575758583621 0 0 0
7330 198 16 0.415 31.532251876438426 24.427907216360055 2.615932343509052 0 0 0
7592 286 15 -0.83 25.92563875068793 23.547602959072115 1.6799060101744094 0 0 0
7594 286 16 0.415 25.93321731649437 24.332019875428777 2.236339151007731 0 0 0
7136 134 15 -0.83 12.21708719207027 30.188364503656718 -4.576532853158818 0 0 0
7137 134 16 0.415 12.405688221433744 29.436649692743185 -5.12757202463124 0 0 0
7138 134 16 0.415 12.435381097245521 29.444389122669122 -5.1426988817704675 0 0 0
7373 213 15 -0.83 17.434080048259517 27.563535264727093 -4.504809799472348 0 0 0
6743 3 15 -0.83 12.585086278746909 27.371832628864556 0.2602645776111949 0 0 0
6744 3 16 0.415 12.180233322965675 28.225845169754823 0.4008215559337197 0 0 0
6745 3 16 0.415 12.148706904319916 28.22068431257265 0.3961626923278164 0 0 0
7374 213 16 0.415 17.697180156280684 28.06166728484316 -3.7246927529321145 0 0 0
7375 213 16 0.415 17.72503439096565 28.06065426853644 -3.7248458588932123 0 0 0
7457 241 15 -0.83 21.937024176359152 31.274411992578653 -5.370057863364812 0 0 0
7542 269 16 0.415 24.517106830969915 25.693806581135647 -2.280791622833596 0 0 0
7130 132 15 -0.83 19.932696325273692 29.604641740286972 -1.697090500302834 0 0 0
7131 132 16 0.415 20.44274368378263 30.382849260199922 -1.4739504885000203 0 0 0
7132 132 16 0.415 20.421780133163175 30.401764164347828 -1.4564384239202433 0 0 0
7541 269 15 -0.83 25.091843548563283 25.960699715409735 -1.5618935633780247 0 0 0
7543 269 16 0.415 24.529661555228525 25.704246001079824 -2.304216703666422 0 0 0
6827 31 15 -0.83 28.754152970319375 27.64063455477689 1.3938345402839738 0 0 0
6828 31 16 0.415 29.594394896913354 27.462715559588318 0.9805848536228895 0 0 0
6829 31 16 0.415 29.586770573016686 27.45722373046189 0.9478427203065076 0 0 0
7319 195 15 -0.83 30.40274724078908 30.484714816106326 1.6094002182501497 0 0 0
7320 195 16 0.415 30.856716790072372 30.582654446708478 0.7797708423169268 0 0 0
7321 195 16 0.415 30.826388320938115 30.59747317291871 0.7525660841327927 0 0 0
7586 284 15 -0.83 26.848845120962146 31.352360776553454 -2.3505642434066236 0 0 0
7587 284 16 0.415 27.545317564396186 30.889096994290316 -1.8889405889249207 0 0 0
7588 284 16 0.415 27.557246849242738 30.869503896323664 -1.9103759160292029 0 0 0
6902 56 15 -0.83 31.76950191477587 29.79705150065147 4.531896986447456 0 0 0
6903 56 16 0.415 31.23290503981444 30.36626390676476 5.078476479579908 0 0 0
6904 56 16 0.415 31.207963256546048 30.37586063480395 5.058530045080782 0 0 0
5 1 1 0.04 11.751843598092497 14.014316807979629 14.590503867249026 0 0 0
6 1 1 -0.0521 12.905013455653114 12.297186005548486 16.4704082965495 0 0 0
7 1 2 0.0866 14.505140734589792 15.110708300923797 13.840033126740213 0 0 0
10 1 1 -0.0632 17.113353164769396 14.068052145825146 15.777979142962801 0 0 0
11 1 4 -0.2623 12.81503464575925 17.97594182347923 14.927970088436068 0 0 0
12 1 1 0.0077 17.7540923185123 15.302183675138032 15.959013482283677 0 0 0
13 1 1 -0.0444 17.21610779039743 16.457648907548304 15.388375304107704 0 0 0
14 1 1 -0.0091 16.084783733850642 16.36181589777774 14.553772174065914 0 0 0
15 1 8 -0.3506 15.680207411173653 17.37426597173637 13.674408520850116 0 0 0
16 1 2 0.0896 17.762871887966664 17.377453153158715 15.534294977783494 0 0 0
17 1 2 0.0872 11.601592872008382 18.25920178159933 12.471132378822432 0 0 0
18 1 1 0.04 13.02728456062492 11.99748865158093 15.098855812754993 0 0 0
19 1 1 -0.0645 15.397430570565428 15.156108839401362 14.452838508552835 0 0 0
20 1 1 -0.051 12.41676426960401 12.850707737671062 14.155537575013591 0 0 0
22 1 2 0.0839 15.422979751413633 13.060049578286113 14.896779862527868 0 0 0
23 1 2 0.0866 17.55330047489858 13.158727462751221 16.171443771813205 0 0 0
25 1 2 0.0872 12.479040945595132 12.637544730206848 13.091439088507824 0 0 0
26 1 1 -0.0801 15.917493986430681 14.00533706080072 15.049383520685348 0 0 0
27 1 1 0.0278 12.25468036173476 13.461792580907398 16.915071689090937 0 0 0
28 1 1 -0.0521 11.670291966061258 14.308107684850922 15.959036566569965 0 0 0
34 1 7 -0.379 12.092481067765656 15.916540129905917 13.252244036045587 0 0 0
124 1 2 0.0872 13.36546689316809 11.642912603618843 17.207742993226823 0 0 0
126 1 1 -0.0801 13.983269557391688 18.167294368580396 18.05300104986244 0 0 0
138 1 1 -0.043 11.43338301081364 17.004295042057425 17.975105747809394 0 0 0
6715 1 9 0.2886 12.260942313324204 16.44866286435269 14.061069961927613 0 0 0
2 1 6 0.157 15.817648842516059 18.327988692373626 13.994245373204185 0 0 0
32 1 6 0.157 15.81880062949795 18.32823376922337 13.996795568726673 0 0 0
117 1 4 -0.2763 18.310322537163724 15.164328250112865 18.751553194717342 0 0 0
120 1 1 -0.0632 13.820721061158228 16.808293605690398 18.373236324843187 0 0 0
121 1 2 0.0866 14.679909601026397 16.225556896217526 18.69500872314273 0 0 0
123 1 4 -0.2763 12.058957137318124 12.759358460610636 19.159967592081312 0 0 0
131 1 1 0.0078 12.539594621304358 16.228210317286877 18.355114669980388 0 0 0
132 1 10 0.2266 12.153260169825424 13.70167280030674 18.399140880295608 0 0 0
133 1 6 0.1829 12.336647230147863 14.979888960298807 19.959159223244594 0 0 0
134 1 11 -0.2514 12.32447537644007 14.96209615650636 18.94767462241954 0 0 0
135 1 1 0.0078 17.542233241917838 11.567351463451468 20.011631584525635 0 0 0
38 1 2 0.0866 20.594089713181678 14.66428021743821 11.996482760629604 0 0 0
40 1 1 -0.0801 21.11987424217985 16.253467819680658 13.360942507857576 0 0 0
42 1 11 -0.2514 19.005759631370196 15.382435701499672 16.60004187079819 0 0 0
43 1 2 0.0871 21.453789142648443 15.802950885234733 16.46309740065365 0 0 0
46 1 6 0.1829 19.78962940978842 15.61848088324866 16.00603514132905 0 0 0
49 1 1 -0.0645 21.28767673596159 14.995563423941235 12.765232777313507 0 0 0
52 1 2 0.0839 20.27536020738073 16.873068358536194 13.075915725587874 0 0 0
55 1 6 0.157 23.75823368200186 12.98101827149784 12.096103996885203 0 0 0
57 1 10 0.2266 24.1660956638733 16.34556728755205 17.01663750685385 0 0 0
58 1 11 -0.2514 24.10078753892184 16.356451472813283 15.62344779737067 0 0 0
59 1 1 0.0077 23.12888340418276 15.894019719275056 14.69831485654865 0 0 0
61 1 6 0.1829 24.956417828783884 16.678454815472445 15.185660848178602 0 0 0
64 1 1 -0.0444 23.30166172481392 14.643473107989848 14.081044626167262 0 0 0
66 1 2 0.0896 24.161971846255007 14.030736362792338 14.334600589598224 0 0 0
67 1 2 0.0839 24.74204900222813 13.62128874748817 17.039727694076852 0 0 0
69 1 8 -0.3506 22.773207286363235 13.155998076486629 12.218983345834614 0 0 0
71 1 2 0.0866 21.97604329069457 17.730010165815383 14.671642956155374 0 0 0
72 1 1 -0.0632 22.072996606708095 16.726776188260175 14.277466421007938 0 0 0
73 1 1 -0.0091 22.425307645378204 14.23009134201429 13.062749501780074 0 0 0
78 1 6 0.157 23.77682642953227 13.00025736093497 12.111184112836618 0 0 0
174 1 1 -0.0531 21.704885736120325 15.67918500469017 17.496136123755424 0 0 0
175 1 10 0.2266 19.227452846962 15.300230910745135 17.959348812872744 0 0 0
193 1 4 -0.2763 25.21603093226618 16.712734679513154 17.511975262950262 0 0 0
200 1 1 0.0277 23.03052873569467 15.892389476073747 17.92613529023784 0 0 0
166 1 1 -0.0531 20.96896074847396 15.21600566412218 19.76101637297543 0 0 0
167 1 2 0.0866 18.941968647755477 12.6142667906291 18.735298112889936 0 0 0
168 1 1 -0.0632 18.511791660121094 11.653868596597727 18.99637074544127 0 0 0
170 1 1 0.0277 20.662862846979973 15.38899867444343 18.403117565126024 0 0 0
187 1 1 -0.0531 23.29002009638019 15.760612329553663 19.308748659150297 0 0 0
196 1 2 0.0866 23.291611841635472 12.824823196322445 19.953760377416753 0 0 0
197 1 2 0.0871 24.287183481069395 15.944747377654895 19.697059583049928 0 0 0
81 1 6 0.1829 32.38644873060912 13.577423228718734 15.093999692175254 0 0 0
83 1 6 0.1829 30.086060657142795 15.20296586300211 16.55734360323912 0 0 0
84 1 1 -0.0531 30.115948301164227 13.954024919130866 14.520086524888072 0 0 0
85 1 4 -0.2763 27.55259486590768 16.43568148706151 15.148816983201002 0 0 0
87 1 10 0.2266 31.77658863674982 12.146581236067398 13.797177639384431 0 0 0
88 1 2 0.0866 26.0260956860467 12.078471130657201 15.592273201271764 0 0 0
89 1 4 -0.2415 25.855018905625187 12.572757371848956 12.122128059837983 0 0 0
90 1 1 -0.0632 26.47558876922315 12.457385391409531 16.50590433704487 0 0 0
96 1 12 0.3852 27.007171358662085 12.170919760795972 12.109957679152275 0 0 0
97 1 1 -0.0507 29.420493419922995 12.285269710890526 12.907480338724035 0 0 0
98 1 1 0.0278 30.43165353566093 12.836986265077071 13.715250399977453 0 0 0
99 1 1 -0.0507 27.811303220868687 13.8944433446927 13.768804153869878 0 0 0
100 1 1 0.0278 28.810555091580444 14.491182152757792 14.560553246788295 0 0 0
101 1 10 0.2266 28.49771895854381 15.707909570293648 15.403178120232907 0 0 0
102 1 2 0.0872 29.659637402972535 11.430055571164095 12.280956671920517 0 0 0
103 1 2 0.0871 30.889086800398346 14.409089314782511 15.127684097421726 0 0 0
104 1 1 0.0586 28.103855711716022 12.793038374382244 12.937177076212032 0 0 0
107 1 2 0.0872 26.798811236557132 14.288050561971287 13.805985962644598 0 0 0
108 1 11 -0.2514 29.409168091588015 15.939386441222128 16.42671551997663 0 0 0
109 1 1 0.0078 27.77548525723052 12.081883222984114 16.884177482468626 0 0 0
212 1 1 0.0078 29.703814695678854 17.091053325551535 17.208026090078928 0 0 0
215 1 2 0.0866 31.346411670796336 16.055021327591316 18.160988181833318 0 0 0
223 1 1 -0.0801 25.743529874482718 13.321872212706962 17.333133384702823 0 0 0
227 1 1 -0.0632 30.81436122662068 16.997474968568927 18.06624134191474 0 0 0
233 1 1 -0.043 28.333224003142764 12.563978943962319 18.0763105593258 0 0 0
237 1 2 0.0896 32.08565015507165 12.5183004590776 17.205167387445464 0 0 0
80 1 1 -0.043 29.018868288400295 18.317961125182194 17.108741373333835 0 0 0
222 1 1 -0.0801 31.277000586976698 18.1204831846182 18.76916814466995 0 0 0
228 1 2 0.0896 29.323204799708115 12.234225385355831 18.379243200854575 0 0 0
230 1 1 -0.0632 26.291124494085043 13.764467614365309 18.551945266459743 0 0 0
231 1 2 0.0866 25.70881720516906 14.396372613568445 19.20885174838712 0 0 0
232 1 1 0.0078 27.567782897412066 13.339595719795584 18.95547126485905 0 0 0
236 1 4 -0.2763 31.778553086586623 13.18205120398883 19.415795062772602 0 0 0
238 1 2 0.0839 32.160445293941535 18.042661638677565 19.39705967778143 0 0 0
30 1 1 -0.051 13.09605601848309 20.735186441253557 10.644568985464025 0 0 0
31 1 2 0.0872 12.917331584453205 21.382339884141917 9.790473275458634 0 0 0
863 1 7 -0.379 16.19158207710535 21.556046561242752 10.300880102361145 0 0 0
6718 1 9 0.2886 16.151931553621843 20.58558062623267 10.3404805539817 0 0 0
116 1 1 0.0078 11.599572755621153 18.348309958099968 17.6094007380471 0 0 0
1 1 1 0.04 13.421311054726498 19.298153065064014 13.026878013657885 0 0 0
3 1 12 0.2765 13.430482691226683 18.922322583689134 14.478718173539958 0 0 0
4 1 1 -0.051 12.338605144681564 18.999344340063864 12.17550739876988 0 0 0
8 1 4 -0.2623 17.674071094035213 19.12379655837346 14.102310948255777 0 0 0
9 1 1 -0.051 14.433140674466166 20.14692552804485 12.565121595962324 0 0 0
21 1 1 0.04 14.246839804117748 20.921475476769295 11.428035857068343 0 0 0
24 1 2 0.0872 15.322310767968695 20.323573495114267 13.156204052648546 0 0 0
29 1 1 0.04 12.158315547855052 19.736260601961526 10.983961196664838 0 0 0
33 1 7 -0.379 14.372381264237443 19.570153853731846 15.20991936365799 0 0 0
35 1 12 0.2765 17.902087972036846 20.190142339321568 13.601872969672465 0 0 0
122 1 2 0.0839 14.97369108700232 18.61459063563084 18.0785777032377 0 0 0
129 1 1 -0.0632 12.866230721094214 18.943776541287956 17.697199998617855 0 0 0
165 1 2 0.0866 12.986723428162266 19.98807276487789 17.422693266239175 0 0 0
829 1 1 -0.0632 15.311115783176158 23.834440934335625 16.081878053768616 0 0 0
830 1 2 0.0866 15.193108180893852 23.341098519356894 15.120798160022074 0 0 0
833 1 1 0.0078 16.082823611348676 25.006850003837876 16.184889458051842 0 0 0
841 1 10 0.2266 17.959682942792284 25.01394184386928 14.51853608674998 0 0 0