LAMMPS data file via write_data, version 29 Oct 2020, timestep = 231

6739 atoms
14 atom types
7169 bonds
18 bond types
11129 angles
23 angle types
19475 dihedrals
42 dihedral types

11.246593 53.753407 xlo xhi
11.246593 53.753407 ylo yhi
1.27354 64.665814 zlo zhi

Masses

1 12.01
2 1.008
3 12.01
4 16
5 14.01
6 1.008
7 16
8 14.01
9 1.008
10 12.01
11 14.01
12 12.01
13 1.008
14 16

Pair Coeffs # lj/cut/coul/long/omp

1 0.086 3.39967
2 0.015 2.59964
3 0.086 3.39967
4 0.21 2.95992
5 0.17 3.25
6 0.0157 1.06908
7 0.2104 3.06647
8 0.17 3.25
9 0 0
10 0.086 3.39967
11 0.17 3.25
12 0.086 3.39967
13 0.0157 1.06908
14 0.2104 3.06647

Atoms # full

1 1 1 0.04 13.461895871285584 19.158452797693325 13.005402398403366 0 0 0
2 1 6 0.157 15.67021187257537 18.375846021912757 13.999545430874209 0 0 0
3 1 12 0.2765 13.497616199430443 18.882050447153105 14.503872441547088 0 0 0
4 1 1 -0.051 12.392614970969346 18.86938081595684 12.107517153473635 0 0 0
5 1 1 0.04 11.774489703571401 13.987895332963035 14.552285300232517 0 0 0
6 1 1 -0.0521 12.899085739876934 12.281310312365672 16.481232309793914 0 0 0
7 1 2 0.0866 14.487226195834333 15.288151988317283 13.9105048793087 0 0 0
8 1 4 -0.2623 17.8322418897523 19.104160632630926 14.03143560228575 0 0 0
9 1 1 -0.051 14.452927369025469 20.028385860005187 12.551124449398781 0 0 0
10 1 1 -0.0632 17.11601481815349 14.12079385855615 15.731763866553116 0 0 0
11 1 4 -0.2623 12.942653558573268 17.933483681094778 15.016208332274461 0 0 0
12 1 1 0.0077 17.77590331466996 15.340429141171944 15.952126536245924 0 0 0
13 1 1 -0.0444 17.263642360602837 16.523147621388564 15.422360251681386 0 0 0
14 1 1 -0.0091 16.112222448026678 16.47033463473518 14.61938729413529 0 0 0
15 1 8 -0.3506 15.816068775392777 17.43578627632663 13.655694737020186 0 0 0
16 1 2 0.0896 17.864588038259633 17.41549205874191 15.526467039839593 0 0 0
17 1 2 0.0872 11.666088042337908 18.089014434805527 12.295821313810203 0 0 0
18 1 1 0.04 13.005443673839737 11.948072829516148 15.107501610435794 0 0 0
19 1 1 -0.0645 15.378825954926617 15.29436709175324 14.522106582292466 0 0 0
20 1 1 -0.051 12.384703295594623 12.773285738161402 14.14857956194923 0 0 0
21 1 1 0.04 14.217338593807497 20.890406443800167 11.490076822927564 0 0 0
22 1 2 0.0839 15.389351719378304 13.176554525350053 14.829615168340695 0 0 0
23 1 2 0.0866 17.562490797224324 13.18765682090164 16.056869616755353 0 0 0
24 1 2 0.0872 15.351204639213233 20.175451268810725 13.129851931377157 0 0 0
25 1 2 0.0872 12.431546785820252 12.470305066677874 13.106615399744339 0 0 0
26 1 1 -0.0801 15.898010445280658 14.106434855837367 15.036780404602817 0 0 0
27 1 1 0.0278 12.243711039059962 13.455030702377554 16.895909744411167 0 0 0
28 1 1 -0.0521 11.687822399277014 14.289436206608974 15.914183424547467 0 0 0
29 1 1 0.04 12.169977196724549 19.69095429270081 10.973662004659163 0 0 0
30 1 1 -0.051 13.06813989979096 20.7411846325322 10.705496633274644 0 0 0
31 1 2 0.0872 12.878072155885455 21.447576998599445 9.900835344029934 0 0 0
32 1 6 0.157 15.671506676446052 18.37729194443574 14.012551961074957 0 0 0
33 1 7 -0.379 14.4568274360308 19.600845110346324 15.18487145970642 0 0 0
34 1 7 -0.379 12.153086669269513 16.027619168128258 13.412600910020378 0 0 0
35 1 12 0.2765 17.831047811256536 20.222901858793577 13.603708164345218 0 0 0
6714 1 9 0.2886 14.25956007005365 19.72600138456085 16.13604045946403 0 0 0
6715 1 9 0.2886 12.108149728139345 16.662033838519147 14.175457823443244 0 0 0
6718 1 9 0.2886 16.15560464506441 20.56888110626173 10.538405246032767 0 0 0
863 1 7 -0.379 16.065758329179396 21.50876937850057 10.304857654153468 0 0 0
3384 1 12 0.2765 11.250519650995379 15.054999362735026 13.628751983330991 1 0 0
36 1 7 -0.379 18.44316800881412 20.176294572071203 12.49962606927884 0 0 0
37 1 8 -0.3506 20.861361400935145 19.284672481069617 11.982703322383465 0 0 0
38 1 2 0.0866 20.568371840861133 14.649874483093528 12.010563852744383 0 0 0
39 1 6 0.157 19.96569968642081 18.981026571221147 12.332548350978637 0 0 0
40 1 1 -0.0801 21.11108771064013 16.250400226367297 13.355763492489125 0 0 0
41 1 1 -0.0521 18.777072511394437 20.953532800287366 15.707663247417406 0 0 0
42 1 11 -0.2514 19.02976748947536 15.390770984607276 16.58022709799087 0 0 0
43 1 2 0.0871 21.463358519437328 15.803968758263554 16.45486005117304 0 0 0
44 1 1 -0.0092 20.93569951994687 20.672229127603014 11.675662539810034 0 0 0
45 1 2 0.0895 21.30166683774366 21.261606630502804 13.696760479244466 0 0 0
46 1 6 0.1829 19.788428371167388 15.73763541411935 16.008481064229386 0 0 0
47 1 1 0.04 18.437338600333497 21.297738362843763 14.404415098136083 0 0 0
48 1 2 0.0872 18.879238055903112 19.905180626824283 15.97872101576138 0 0 0
49 1 1 -0.0645 21.260114894048492 14.979999205516076 12.782173459279507 0 0 0
50 1 2 0.0866 21.512784922312857 18.752235332774482 16.54869323595997 0 0 0
51 1 1 -0.0457 21.28658486787141 21.59972047261352 12.66519970166245 0 0 0
52 1 2 0.0839 20.278026964489225 16.877564833525 13.054967046522558 0 0 0
53 1 1 -0.0645 20.594176763166253 21.16262755242444 10.40349379229918 0 0 0
54 1 2 0.0866 20.046733855964177 20.549416170287525 9.694315376865834 0 0 0
55 1 6 0.157 23.78232939391266 13.077744713312137 12.067392163017196 0 0 0
56 1 11 -0.2514 23.94355796901519 19.545151170685923 15.733138225714372 0 0 0
57 1 10 0.2266 24.17027775952756 16.315950721224088 17.01023837167518 0 0 0
58 1 11 -0.2514 24.091299480427796 16.348341229357718 15.618236784954796 0 0 0
59 1 1 0.0077 23.114030328552932 15.883756889590021 14.700447374004316 0 0 0
60 1 1 0.0078 23.386804443555153 19.743917006633538 17.040019310008905 0 0 0
61 1 6 0.1829 24.93544822247757 16.690355510821533 15.174502099496136 0 0 0
62 1 1 0.0586 25.032428743461683 19.155678669594195 11.518919843405612 0 0 0
63 1 6 0.1829 23.25875631757497 19.451066311144242 14.993287889677006 0 0 0
64 1 1 -0.0444 23.26253705892942 14.61703065190456 14.113240507234742 0 0 0
65 1 1 -0.0507 24.658924226627775 19.144732798586826 12.873668833049953 0 0 0
66 1 2 0.0896 24.113207153283316 13.995957229420645 14.378833078417735 0 0 0
67 1 2 0.0839 24.737295368585134 13.604004949627898 16.998521778044022 0 0 0
68 1 10 0.2266 25.281749862617506 19.612918497845037 15.330613410384007 0 0 0
69 1 8 -0.3506 22.785387889866122 13.188553540584008 12.200402067979864 0 0 0
70 1 2 0.0872 23.603242781013606 19.240212008161656 13.111683855271238 0 0 0
71 1 2 0.0866 22.001279593917353 17.742534415539485 14.63071887729283 0 0 0
72 1 1 -0.0632 22.07527403995885 16.727910011639946 14.259523224075584 0 0 0
73 1 1 -0.0091 22.395082778782893 14.212863678694921 13.084272406531163 0 0 0
74 1 12 0.3852 24.16845493845151 19.911814559872326 10.578507094920194 0 0 0
75 1 4 -0.2415 23.098689662501883 19.501305092986303 10.184625324925474 0 0 0
76 1 6 0.157 19.963951212864245 18.953353995316544 12.338564630280278 0 0 0
77 1 7 -0.2415 23.737957133569143 21.695785779682293 13.915325937155252 0 0 0
78 1 6 0.157 23.789306733807276 13.085554288402538 12.073710332802236 0 0 0
79 1 7 -0.2415 24.48246112337439 21.22955629844067 10.580380481196894 0 0 0
6716 1 9 0.2886 19.1949117661587 19.744127616305146 12.981619181218699 0 0 0
80 1 1 -0.043 29.020964344488494 18.338900962973984 17.1022469110384 0 0 0
81 1 6 0.1829 32.39022926033251 13.565677118147569 15.130659161504855 0 0 0
82 1 1 0.0279 25.63296014129995 19.36527957584748 13.87149933735886 0 0 0
83 1 6 0.1829 30.08317893314048 15.22497496893053 16.545502087419234 0 0 0
84 1 1 -0.0531 30.104433472851902 13.957889078941724 14.529895361481074 0 0 0
85 1 4 -0.2763 27.547054567617632 16.450011384284977 15.136424195677128 0 0 0
86 1 2 0.0896 28.152912792668378 18.44306121249059 16.46288727834378 0 0 0
87 1 10 0.2266 31.786410333839612 12.171696987728494 13.789739731528659 0 0 0
88 1 2 0.0866 26.00482033355393 12.03311414468341 15.597286313045469 0 0 0
89 1 4 -0.2415 25.870209790409692 12.568171039145566 12.082372919818543 0 0 0
90 1 1 -0.0632 26.463420442758572 12.430906239611796 16.497661379270607 0 0 0
91 1 1 -0.0507 26.9774074328625 19.523949795699522 13.45675323582378 0 0 0
92 1 2 0.0872 27.72394836620262 19.817136262677483 14.187220828613464 0 0 0
93 1 6 0.1829 28.447431535616815 21.01961412989842 16.981402363305964 0 0 0
94 1 1 0.0586 27.365709287505645 19.368200923848374 12.107423311378286 0 0 0
95 1 4 -0.2763 26.154840027872424 19.970841107912346 16.098017061184553 0 0 0
96 1 12 0.3852 27.016417818759482 12.150643048236285 12.11162023328887 0 0 0
97 1 1 -0.0507 29.42891351572801 12.304601400924804 12.89596127020281 0 0 0
98 1 1 0.0278 30.434714064723405 12.855210677543822 13.711427483086007 0 0 0
99 1 1 -0.0507 27.79831304448576 13.880690023935779 13.780562871755693 0 0 0
100 1 1 0.0278 28.795435789705955 14.490222903556518 14.567844152515855 0 0 0
101 1 10 0.2266 28.479902769185863 15.71182290909562 15.406236558415534 0 0 0
102 1 2 0.0872 29.67158800410019 11.448776662684605 12.272091952771364 0 0 0
103 1 2 0.0871 30.870317312355265 14.399966437134129 15.155085081726016 0 0 0
104 1 1 0.0586 28.10518999407127 12.792810551778931 12.935026274477096 0 0 0
105 1 12 0.3852 28.774023257228894 19.612563192797445 11.627558635104824 0 0 0
106 1 7 -0.2415 29.63617332908695 20.09700060179768 12.547572529638696 0 0 0
107 1 2 0.0872 26.77450353592867 14.241976007140769 13.842773411266771 0 0 0
108 1 11 -0.2514 29.397130674481584 15.953986368323587 16.422381111615987 0 0 0
109 1 1 0.0078 27.765296487654503 12.066690406688359 16.876532540308933 0 0 0
110 1 2 0.0874 26.64228722321911 19.061945065316376 10.097713732866385 0 0 0
111 1 4 -0.2415 29.10862931314996 19.485643787296354 10.460972351813968 0 0 0
112 1 1 -0.0483 26.380678566094403 19.081816835562492 11.154270679155879 0 0 0
113 1 1 0.0277 14.540560132295232 16.774865598262853 21.72795487874456 0 0 0
114 1 1 -0.0531 14.638734267018258 15.381063731739834 21.51303752563335 0 0 0
115 1 2 0.0871 13.732768633848856 14.80352116988843 21.3691284453004 0 0 0
116 1 1 0.0078 11.603333266555907 18.32446925599415 17.548121800385495 0 0 0
117 1 4 -0.2763 18.310650644755984 15.252591800568217 18.729162483288118 0 0 0
118 1 2 0.0866 12.710892938150637 20.916211776083756 20.217118205438688 0 0 0
119 1 6 0.1829 17.984633368333427 13.420697229804556 20.805204878688155 0 0 0
120 1 1 -0.0632 13.82257327685126 16.81273860402477 18.379002407096397 0 0 0
121 1 2 0.0866 14.672408401498453 16.24048548931152 18.74375631478695 0 0 0
122 1 2 0.0839 14.982290169325877 18.5963481746743 18.003892214996704 0 0 0
123 1 4 -0.2763 11.995432050073974 12.781969176535197 19.143705274547155 0 0 0
124 1 2 0.0872 13.352632632134167 11.65450312578205 17.251624001874568 0 0 0
125 1 10 0.2266 15.96082093551452 13.262760320528505 21.02574047715892 0 0 0
126 1 1 -0.0801 13.988068493237927 18.157185275056367 18.007155145388722 0 0 0
127 1 4 -0.2763 12.144297299135806 16.82088113439058 21.756221736144603 0 0 0
128 1 11 -0.2514 17.22234036044235 12.762205237664547 20.715608288716442 0 0 0
129 1 1 -0.0632 12.867501907849913 18.92283808618936 17.632992630684672 0 0 0
130 1 1 -0.0632 12.011891175946165 20.836494459274956 21.04313305510186 0 0 0
131 1 1 0.0078 12.546529325217962 16.226765666280365 18.339356354417724 0 0 0
132 1 10 0.2266 12.10658360037856 13.715410761292773 18.376276114153626 0 0 0
133 1 6 0.1829 12.404041907777653 14.970408607380095 19.938360657519667 0 0 0
134 1 11 -0.2514 12.338015626714505 14.963242457596094 18.928835019535793 0 0 0
135 1 1 0.0078 17.559006491427652 11.563191149925647 20.014980416723706 0 0 0
136 1 10 0.2266 13.183954339602089 17.45652605097313 21.774648448076498 0 0 0
137 1 1 0.0277 15.88885522098067 14.725534898690315 21.433852368682405 0 0 0
138 1 1 -0.043 11.440188431078225 16.983970247460505 17.925163505379746 0 0 0
139 1 4 -0.2763 14.949115564744073 12.609331187474407 20.836891886075872 0 0 0
140 1 1 -0.0531 15.732350666622294 17.502835960822647 21.926947377550146 0 0 0
141 1 6 0.1829 14.07259232433263 19.299383632314573 21.624551477551933 0 0 0
142 1 11 -0.2514 13.185800708093524 18.845325296517476 21.791485822136856 0 0 0
143 1 1 -0.0531 17.05186308229551 15.476821234224422 21.707075652686076 0 0 0
144 1 6 0.1829 13.619752433033009 12.488449435015413 23.488795546147042 0 0 0
145 1 1 0.0078 15.293118827460418 20.374314397584897 24.973523424133404 0 0 0
146 1 2 0.0871 12.284571118839349 13.183027015565363 22.57020402407876 0 0 0
147 1 1 -0.043 16.566018087107125 12.778687737043326 24.829713944706857 0 0 0
148 1 2 0.0896 16.742781144251573 13.793069550185788 24.486117085001116 0 0 0
149 1 11 -0.2514 18.179991547903878 18.582035539015905 23.37725893529772 0 0 0
150 1 10 0.2266 13.839314291145856 14.21811902824332 24.58070956016851 0 0 0
151 1 2 0.0871 15.692420200361848 18.5757421446535 22.07695058124234 0 0 0
152 1 1 0.0277 12.483110890897343 14.670802415348438 24.113760524961787 0 0 0
153 1 1 0.0078 17.0979331234259 18.885466828542906 24.24659552248374 0 0 0
154 1 1 -0.0531 11.841081643854528 15.719375739818174 24.78669951872671 0 0 0
155 1 1 0.0078 15.30111963472016 12.200502830677866 24.642342944265014 0 0 0
156 1 11 -0.2514 14.522832067231331 21.56840380579833 24.875819353124452 0 0 0
157 1 1 0.0078 12.090284133365312 19.74132528052985 21.920381175373407 0 0 0
158 1 2 0.0896 16.86390222200441 20.924816996088857 23.571895825439345 0 0 0
159 1 1 -0.043 16.46971591166569 20.148053267173083 24.22108376740608 0 0 0
160 1 11 -0.2514 14.237785576161171 12.970756670704304 24.12672291048501 0 0 0
161 1 10 0.2266 18.240561961405117 17.60032223853949 22.39037875591451 0 0 0
162 1 1 0.0277 16.981778203348806 16.854594023083973 21.99998163824422 0 0 0
163 1 1 -0.0531 11.778609954491234 13.965273822082084 23.123110909847295 0 0 0
164 1 2 0.0871 18.020293341913963 14.987949109010117 21.7146130851982 0 0 0
165 1 2 0.0866 12.976629917612238 19.955268658167345 17.317701596186467 0 0 0
166 1 1 -0.0531 20.96653986846496 15.203641277853151 19.747575697829806 0 0 0
167 1 2 0.0866 18.969422599897456 12.603435285064446 18.740563024757602 0 0 0
168 1 1 -0.0632 18.530307400550576 11.645880783642019 18.999253791293516 0 0 0
169 1 2 0.0871 20.1714973034125 14.986926582407238 20.454410909593637 0 0 0
170 1 1 0.0277 20.669610018483358 15.384735509053534 18.38942451271455 0 0 0
171 1 4 -0.2763 18.423080069461346 20.621843937826362 18.57999886196819 0 0 0
172 1 1 -0.0632 20.055303607176423 21.281456363309967 20.97922199093892 0 0 0
173 1 2 0.0839 20.762718912310145 18.559908100199255 18.89170339213345 0 0 0
174 1 1 -0.0531 21.715690708301285 15.654366702318416 17.483875666834262 0 0 0
175 1 10 0.2266 19.237316049994533 15.333661588253312 17.941010247417957 0 0 0
176 1 1 -0.0801 21.695467919601132 19.068447423373527 18.66189783015565 0 0 0
177 1 10 0.2266 19.037090063320452 21.555722703310856 18.092925743952378 0 0 0
178 1 2 0.0866 19.52616317287135 20.402506007962415 20.634879307181592 0 0 0
179 1 1 0.0078 21.902046138662215 12.772265572821325 21.609487666353136 0 0 0
180 1 6 0.1829 19.06980340304811 18.973108145743545 23.659176015967454 0 0 0
181 1 2 0.0896 20.441570606866016 12.403230073948926 23.16355075445868 0 0 0
182 1 1 -0.043 20.903648095557067 12.021697111512923 22.259124523122104 0 0 0
183 1 1 -0.0801 20.429181771496427 21.33808366243638 22.325926978061684 0 0 0
184 1 2 0.0839 20.17393964898976 20.509699394787706 22.976321840639596 0 0 0
185 1 4 -0.2763 19.324853536455073 17.274445359892198 21.938077392218656 0 0 0
186 1 2 0.0896 24.958457529154717 21.011948531745468 17.860256174500574 0 0 0
187 1 1 -0.0531 23.297461435676897 15.695484577645702 19.297948043332685 0 0 0
188 1 11 -0.2514 24.270744022477626 21.09398663422711 20.43541223070447 0 0 0
189 1 1 0.0277 22.280116754632434 15.357452469507203 20.207325158049397 0 0 0
190 1 10 0.2266 22.60163432098821 15.190879546462279 21.662423581838915 0 0 0
191 1 10 0.2266 24.600269978002714 20.624313818139733 21.704870655400565 0 0 0
192 1 2 0.0866 22.127863341688442 19.512252011453224 20.724818696009162 0 0 0
193 1 4 -0.2763 25.213275305403243 16.70020560002829 17.506773406106202 0 0 0
194 1 1 -0.0632 22.468110361032615 19.610537660822004 19.69858325186256 0 0 0
195 1 1 -0.043 24.067160558912665 20.43392682460416 18.07235835615461 0 0 0
196 1 2 0.0866 23.28629375379918 12.83595558337757 19.9400891116157 0 0 0
197 1 2 0.0871 24.293078284519765 15.870776709367716 19.690172830671088 0 0 0
198 1 1 -0.0632 22.49947146033043 12.27728271272092 20.439198322707497 0 0 0
199 1 1 0.0078 23.62370152319808 20.354329393482434 19.40542632757909 0 0 0
200 1 1 0.0277 23.04261609113859 15.839903644035466 17.915637647726474 0 0 0
201 1 1 -0.0632 22.13207594083825 19.173097441388716 17.332951444785888 0 0 0
202 1 11 -0.2514 22.41226305095688 13.939079123560115 22.22294894333724 0 0 0
203 1 2 0.0839 24.60172109935487 13.068307033240185 23.27773327147605 0 0 0
204 1 2 0.0871 25.033391049057162 20.17985836825067 24.374367392676053 0 0 0
205 1 6 0.1829 22.85324496920236 13.783608193976127 23.12116394013892 0 0 0
206 1 1 -0.0531 24.78466328879222 21.21628279268551 24.170774143747792 0 0 0
207 1 1 0.0277 24.657729592045765 21.640362524311435 22.82397695013971 0 0 0
208 1 4 -0.2763 23.165638224673437 16.06669245551537 22.290255441639818 0 0 0
209 1 2 0.0866 22.158613030399316 19.832080868084365 24.76668059344462 0 0 0
210 1 4 -0.2763 24.617171039774338 19.432365021385564 21.954937593131095 0 0 0
211 1 10 0.2266 28.011115408853996 21.17865693780344 18.975577103799353 0 0 0
212 1 1 0.0078 29.68897964698692 17.102887686877146 17.209104221429705 0 0 0
213 1 1 0.0078 29.45610418093589 19.446089780597745 17.857153443617243 0 0 0
214 1 11 -0.2514 28.662969894020982 20.61883922869109 17.886290608261145 0 0 0
215 1 2 0.0866 31.306392153654663 16.04489910728486 18.178889540880675 0 0 0
216 1 1 -0.0531 28.209829235504337 21.362488029139733 21.468066157874855 0 0 0
217 1 2 0.0866 30.97843922246857 20.208383626909136 19.205392054801237 0 0 0
218 1 11 -0.2514 28.016697711942648 13.592445731439787 20.263496141301207 0 0 0
219 1 1 -0.0531 27.94587084418518 19.151858772682388 20.51047504551741 0 0 0
220 1 2 0.0871 27.85118025955858 18.505502239581542 19.643505539838497 0 0 0
221 1 1 0.0277 28.118057588760003 20.5362418503313 20.333731517815814 0 0 0
222 1 1 -0.0801 31.27858160625927 18.118625757803365 18.76301271904551 0 0 0
223 1 1 -0.0801 25.737984429904493 13.315807694564981 17.30512174021074 0 0 0
224 1 1 -0.0632 30.61504128876758 19.348445656923456 18.649188314996408 0 0 0
225 1 1 0.0277 27.788566159097698 18.597458962010606 21.79313909237912 0 0 0
226 1 2 0.0871 32.06631300003968 14.6239749477841 21.604607571391643 0 0 0
227 1 1 -0.0632 30.793034963208733 16.996706864849124 18.0740917907958 0 0 0
228 1 2 0.0896 29.304440934097215 12.220230736165338 18.375505719210683 0 0 0
229 1 6 0.1829 28.0181426472349 14.570038193685669 20.538970980030953 0 0 0
230 1 1 -0.0632 26.289875960394944 13.784627966859478 18.51353904359811 0 0 0
231 1 2 0.0866 25.711821942811707 14.43648785591657 19.1516756923988 0 0 0
232 1 1 0.0078 27.55826749138861 13.348437481105094 18.93586855985243 0 0 0
233 1 1 -0.043 28.319635456261597 12.5574884518399 18.066582518017576 0 0 0
234 1 10 0.2266 28.564070015042624 12.713017142371612 21.202639266704328 0 0 0
235 1 4 -0.2763 27.430929887881273 16.407452190842022 20.929448679559645 0 0 0
236 1 4 -0.2763 31.75665689212565 13.15537871831439 19.401542248943596 0 0 0
237 1 2 0.0896 32.106858082700285 12.50557724526998 17.203069284718286 0 0 0
238 1 2 0.0839 32.166702106164955 18.032882558284843 19.383704686310395 0 0 0
239 1 1 0.0078 27.207222046056458 15.252865269971474 23.56966718736028 0 0 0
240 1 1 -0.0531 27.756752140187402 19.463829442983826 22.90877930289068 0 0 0
241 1 6 0.1829 31.363298291201176 15.834447302820564 22.769253956620098 0 0 0
242 1 1 -0.0632 31.156847671382206 20.30644340286835 24.309608725489184 0 0 0
243 1 1 0.0078 27.51963516918225 13.315687846290134 25.022983328985127 0 0 0
244 1 1 -0.0801 25.560937519297987 13.458972896553345 23.592241804811003 0 0 0
245 1 6 0.1829 27.745972671775053 17.201455003546364 23.964569534977 0 0 0
246 1 10 0.2266 27.588211572951522 17.10583439185326 21.91601166495461 0 0 0
247 1 1 -0.0632 26.039657930101846 14.662615907906476 23.053375979585102 0 0 0
248 1 11 -0.2514 31.76632294207885 16.15754619160533 23.63777934410433 0 0 0
249 1 1 -0.043 27.93119526092094 14.58614918036795 24.57440515840387 0 0 0
250 1 1 -0.0801 31.011940715373417 19.74628395632534 23.029841904089587 0 0 0
251 1 1 -0.0632 31.194607002818767 18.368333961326602 22.836912435972774 0 0 0
252 1 2 0.0896 28.827426114652376 15.043801620330873 24.97966144662687 0 0 0
253 1 2 0.0871 27.54936119430282 19.05225974616565 23.889288415470645 0 0 0
254 1 4 -0.2763 29.150199715785956 13.169375192664624 22.166199086409947 0 0 0
255 1 11 -0.2514 27.575978847327736 16.571272623764578 23.19473835241735 0 0 0
256 1 1 0.0277 28.017147899940724 20.84715940953586 22.765579986739915 0 0 0
257 1 1 0.0078 31.53449084803888 17.536011740132846 23.91743961594052 0 0 0
258 1 2 0.0866 25.471085588595322 15.168480456487258 22.281487376566538 0 0 0
259 1 2 0.0866 25.976802347959968 11.80154789178413 24.914485237273688 0 0 0
260 1 1 -0.0632 26.321421110126504 12.763361660736788 24.54289436213989 0 0 0
261 1 2 0.0866 31.025538986318104 21.37673429653895 24.446784789898583 0 0 0
262 1 2 0.0839 30.75814601082479 20.37896925395593 22.184300718937706 0 0 0
263 1 2 0.0866 31.086675044908105 17.9480053356734 21.840145195799874 0 0 0
264 1 10 0.2266 28.183083040783956 21.76383195227653 23.959819410304284 0 0 0
265 1 1 -0.0531 32.44752760103121 13.77696371849517 22.168892442889206 0 0 0
266 1 2 0.0866 11.700635965704812 11.291247296537167 28.952632210201553 0 0 0
267 1 2 0.0871 14.952917871455233 12.604335167699189 28.875021762764817 0 0 0
268 1 4 -0.2763 12.809912691704842 15.92160237884888 28.636591761935673 0 0 0
269 1 1 -0.0632 16.622729973823827 17.893333877047493 25.11737194727592 0 0 0
270 1 2 0.0866 17.117190603333988 16.927511979870616 25.16195378506987 0 0 0
271 1 1 -0.0531 14.038640042807298 20.840377191282254 31.93252809489049 0 0 0
272 1 6 0.1829 13.301944923238038 12.862063922965786 29.200981774567147 0 0 0
273 1 1 0.0078 17.586108197082904 12.03344301199387 25.44199643655354 0 0 0
274 1 10 0.2266 13.37943727891923 14.865158933058236 28.852343335086957 0 0 0
275 1 2 0.0839 15.13523019992549 17.370300752509245 26.585485545448794 0 0 0
276 1 1 -0.0801 15.497781226517331 18.139115852250367 25.915772255559407 0 0 0
277 1 1 -0.0632 14.82230333156634 19.364287611750804 25.828612348103597 0 0 0
278 1 10 0.2266 17.821067917175995 17.15896121449569 28.49982191876479 0 0 0
279 1 1 0.0278 14.004441005065503 21.236127918651356 30.579979248556135 0 0 0
280 1 11 -0.2514 11.804335805609592 20.202764488888434 30.251722390183257 0 0 0
281 1 1 -0.0801 17.57440469522641 16.122505062977382 32.01040694413173 0 0 0
282 1 1 -0.0531 15.538441226557708 13.515328424611257 28.861021916801608 0 0 0
283 1 4 -0.2763 14.441200057663858 14.806986876251985 25.46404603988708 0 0 0
284 1 2 0.0866 13.918172399889492 19.518409406878966 26.4113959515761 0 0 0
285 1 1 -0.0521 15.215175334522701 21.564150408132928 29.94066007281815 0 0 0
286 1 4 -0.2763 17.310455732653846 18.247172372358698 28.705279009231372 0 0 0
287 1 1 -0.0521 16.466750555652144 20.836907557092573 31.897277892064345 0 0 0
288 1 1 -0.0632 16.38235592815146 15.552902072088948 32.4826801620264 0 0 0
289 1 1 -0.0531 17.69483868292755 14.618635370364832 28.75685381218789 0 0 0
290 1 1 0.04 16.45034541179898 21.33041590370215 30.575770534364093 0 0 0
291 1 11 -0.2514 12.71485246382474 13.680669444601348 29.12591022358851 0 0 0
292 1 6 0.1829 11.98944878570553 19.806268651511107 31.163944995660803 0 0 0
293 1 10 0.2266 17.65102988881923 12.110254414846835 29.00946939904039 0 0 0
294 1 1 0.0277 16.944296140487275 13.43380708137514 28.873238262123497 0 0 0
295 1 10 0.2266 12.75588792335769 21.08146870096513 29.74603064499016 0 0 0
296 1 2 0.0872 17.41529606682529 20.628675884048295 32.38490045086995 0 0 0
297 1 1 -0.0531 15.655970455901572 15.931949890721626 28.790384768978253 0 0 0
298 1 1 0.0277 17.056880743070117 15.876293382871701 28.69865502479448 0 0 0
299 1 1 0.0277 14.882244753842402 14.761401073686503 28.83773126242679 0 0 0
300 1 2 0.0871 15.158872063825081 16.896668489473146 28.77304183292219 0 0 0
301 1 2 0.0871 12.396820224156043 16.260688772682588 25.546575522702337 0 0 0
302 1 4 -0.2763 14.714638329982947 12.047925114398092 31.581907527292593 0 0 0
303 1 4 -0.2763 12.70880561990631 21.492637420769533 28.59703058952497 0 0 0
304 1 2 0.0896 12.063950215790985 18.693164148378592 28.072703431188806 0 0 0
305 1 12 0.2765 17.740922768254034 21.48720118182192 29.82105190386475 0 0 0
306 1 2 0.0839 17.628516540019493 17.19221745539983 31.823134574982067 0 0 0
307 1 1 0.0078 11.330792076294939 13.40047137919601 29.24451014189897 0 0 0
308 1 10 0.2266 14.370389027676408 12.571658511083495 32.629686390882995 0 0 0
309 1 1 0.0078 16.299408481893252 14.170332922083787 32.70312383776135 0 0 0
310 1 1 0.0278 15.262563159577981 20.592273472225855 32.582346756750816 0 0 0
311 1 4 -0.2763 12.440270804241221 15.740740515013522 32.80402697999619 0 0 0
312 1 1 -0.0531 12.119607859867445 11.45719789705184 32.597955419131 0 0 0
313 1 2 0.0896 17.36139723282499 12.290649308516164 32.63196583031266 0 0 0
314 1 1 -0.043 17.42325543139889 13.360214210436006 32.45270793387903 0 0 0
315 1 2 0.0871 13.115086236725908 20.60140487557303 32.45246093599107 0 0 0
316 1 2 0.0866 15.513189167035044 16.17916780112261 32.65265645423044 0 0 0
317 1 6 0.1829 13.923976651173941 21.749894584271455 25.67087535761198 0 0 0
2781 1 6 0.1829 15.876122940631262 11.255740949435753 29.54931618610959 0 1 0
318 1 2 0.0871 21.10542095081905 15.850654567559326 25.145780451619892 0 0 0
319 1 2 0.0871 18.77886596755669 14.552480611137783 28.739078565613887 0 0 0
320 1 1 -0.0632 19.46628500129349 19.156242694938626 26.747425472188247 0 0 0
321 1 2 0.0866 21.346872718892175 21.561037614730154 31.250938909613925 0 0 0
322 1 1 0.0078 19.937203779733416 17.98032019352158 27.366832353168164 0 0 0
323 1 1 -0.0632 21.55804693259226 19.33831806387708 25.52516665436364 0 0 0
324 1 4 -0.2763 18.852859639015474 12.015788950027884 28.829125461834202 0 0 0
325 1 10 0.2266 20.873841468198535 13.182846228456322 30.99603678667269 0 0 0
326 1 11 -0.2514 19.072598002611436 17.009619347457303 27.932175260119983 0 0 0
327 1 6 0.1829 19.35976395739303 16.05648521856095 27.750323794161748 0 0 0
328 1 10 0.2266 19.4349958499473 13.763017396698649 25.5945836991162 0 0 0
329 1 2 0.0871 21.053337362913364 11.792743714114964 26.62228240317477 0 0 0
330 1 6 0.1829 19.58572043986262 11.73057476682214 25.65750511819465 0 0 0
331 1 1 -0.0632 18.685443688450963 15.306172440784234 31.740895408132925 0 0 0
332 1 4 -0.2623 18.78461343341253 20.987158864696447 30.189781210427945 0 0 0
333 1 11 -0.2514 18.918818492038266 12.48141737953681 25.540998982583467 0 0 0
334 1 4 -0.2763 21.107644677219454 14.165725427203602 30.315645621840577 0 0 0
335 1 1 0.0277 20.91258008388224 13.822400997760228 25.85878426381004 0 0 0
336 1 4 -0.2763 18.759327724890884 14.770625004143566 25.484393228876616 0 0 0
337 1 2 0.0866 19.578038537230864 15.768110207204698 31.337636652030692 0 0 0
338 1 2 0.0866 18.444428611411684 19.49596380567464 26.887497759252124 0 0 0
339 1 1 0.0078 18.62452982286568 13.91550283773768 31.971128764929833 0 0 0
340 1 1 -0.0632 21.41386435116857 20.52696760001384 31.578396333126275 0 0 0
341 1 2 0.0839 19.931780655927405 20.757539706880447 25.371194648660385 0 0 0
342 1 2 0.0896 21.63928808051247 16.71123037104214 27.702998633300172 0 0 0
343 1 1 -0.043 21.26784603704596 17.581491905770203 27.170172480328652 0 0 0
344 1 11 -0.2514 19.736221566267044 13.039801876717005 31.78653441515155 0 0 0
345 1 1 -0.0801 20.293919228775867 19.85333286703973 25.8529906144774 0 0 0
346 1 1 -0.0531 21.591656181240243 12.706640003663274 26.393884854127073 0 0 0
347 1 1 -0.0531 21.624283284979157 15.010696208079834 25.5983816948615 0 0 0
348 1 6 0.1829 19.673289143460586 12.18125158368276 32.320141830927305 0 0 0
349 1 1 0.0078 21.56697250070369 17.845702478144098 32.40599330004195 0 0 0
350 1 11 -0.2514 21.507630864825074 16.510782289564837 32.87192552082343 0 0 0
351 1 1 0.0078 20.970696470284132 20.165849551162044 32.861456532806216 0 0 0
352 1 10 0.2266 24.343592123550668 21.612023137685547 26.68240445486434 0 0 0
353 1 10 0.2266 25.279993901079422 15.642424823130163 29.493663946822743 0 0 0
354 1 6 0.1829 23.93469515573266 18.371641905181274 25.441723915730122 0 0 0
355 1 1 0.0078 22.03554618006873 18.17508424195958 26.153255591842107 0 0 0
356 1 1 0.0078 25.15775835807321 18.1109894008981 29.94482982810896 0 0 0
357 1 1 -0.043 25.083515064614033 18.6182170071622 28.637623091508235 0 0 0
358 1 1 0.0078 25.203117165774 19.99388073914503 28.39440330460594 0 0 0
359 1 11 -0.2514 24.8276407054212 16.758206015879942 30.170879973807992 0 0 0
360 1 2 0.0896 24.864897352426404 17.94284632133093 27.820766643910986 0 0 0
361 1 1 -0.0632 21.982674062113453 18.20474931526793 31.109118810165302 0 0 0
362 1 1 0.0277 22.99301073232325 15.116240339268833 25.915553864090395 0 0 0
363 1 4 -0.2763 24.834613162639883 11.722020552019401 27.668831032125542 0 0 0
364 1 10 0.2266 23.7187723593504 11.57707902543357 27.208705050192506 0 0 0
365 1 11 -0.2514 25.061614268832283 20.487414556949627 27.064000731158938 0 0 0
366 1 10 0.2266 23.81444657484508 16.367684159116454 25.67327766005711 0 0 0
367 1 2 0.0871 23.568128557992782 13.336825277196334 31.295994147961753 0 0 0
368 1 6 0.1829 23.9205070061996 16.64067583695541 30.609093604388338 0 0 0
369 1 1 -0.0531 23.239259289381643 12.306398418069335 31.212165467080432 0 0 0
370 1 2 0.0871 24.715651041043067 14.01462617461449 26.595096117370083 0 0 0
371 1 4 -0.2763 24.528957614717978 14.687618445985203 29.40742763103127 0 0 0
372 1 1 -0.0531 23.649660506521265 13.970529293624411 26.409371611410037 0 0 0
373 1 2 0.0839 22.192747731864458 19.831908021834913 29.68726432550076 0 0 0