LAMMPS data file via write_data, version 29 Oct 2020, timestep = 2

16612 atoms
16 atom types
13621 bonds
19 bond types
14369 angles
24 angle types
19495 dihedrals
42 dihedral types

-22.0 22.0 xlo xhi
-22.0 22.0 ylo yhi
-80.0 80.0 zlo zhi

Masses

1 12.01
2 1.008
3 12.01
4 16
5 14.01
6 1.008
7 16
8 14.01
9 1.008
10 12.01
11 14.01
12 12.01
13 1.008
14 16
15 15.9994
16 1.008

Pair Coeffs # lj/cut/coul/long/omp

1 0.086 3.39967
2 0.015 2.59964
3 0.086 3.39967
4 0.21 2.95992
5 0.17 3.25
6 0.0157 1.06908
7 0.2104 3.06647
8 0.17 3.25
9 0 0
10 0.086 3.39967
11 0.17 3.25
12 0.086 3.39967
13 0.0157 1.06908
14 0.2104 3.06647
15 0.102 3.188
16 0 0

Atoms # full

7538 401 15 -0.83 -21.372323438025216 -21.467467041474205 -76.74154847252598 0 0 0
7539 401 16 0.415 -21.984465552363798 -20.690147216379387 -77.0703702987095 0 0 0
7540 401 16 0.415 -20.765954638382752 -21.369634187740253 -75.83210189423481 0 0 0
7994 553 15 -0.83 -21.270069348819252 -18.12780117873524 -70.41591173337443 0 0 0
7995 553 16 0.415 -21.484763443351948 -17.150769641833804 -70.04302686361919 0 0 0
7996 553 16 0.415 -21.293194209635455 -18.305614383793444 -71.49617090784757 0 0 0
8051 572 15 -0.83 -14.818393220133366 -12.723232242049415 -70.33403388859725 0 0 0
8052 572 16 0.415 -15.421447945330026 -13.508501181858238 -70.73508061894668 0 0 0
8108 591 15 -0.83 -21.998181309243346 -12.845792248508523 -78.11789393749365 0 0 0
8591 752 15 -0.83 -13.583892867247227 -16.51407044631812 -72.87571785056934 0 0 0
8592 752 16 0.415 -13.697998107172932 -16.11961708049728 -71.88870030192861 0 0 0
8593 752 16 0.415 -12.58539947116982 -16.54501639597357 -73.32263925704225 0 0 0
8597 754 15 -0.83 -19.14413893778031 -11.485789266403602 -71.82633128876205 0 0 0
8598 754 16 0.415 -18.177601232935245 -11.701572698853392 -71.4254098489282 0 0 0
8599 754 16 0.415 -19.218277482682876 -11.046151862890827 -72.82654273891293 0 0 0
8714 793 15 -0.83 -15.092995605213854 -12.092640952402498 -77.58703739287641 0 0 0
8715 793 16 0.415 -14.296455323640748 -11.630215233754068 -77.04357552817471 0 0 0
8716 793 16 0.415 -15.03488447709781 -12.14767579347019 -78.67419678902968 0 0 0
8828 831 15 -0.83 -20.81629581281743 -14.595477467424272 -73.26464997187796 0 0 0
8829 831 16 0.415 -19.928542402457843 -15.174446486436514 -73.33548314468074 0 0 0
8830 831 16 0.415 -21.414106968572195 -14.627072727740341 -72.3506717475325 0 0 0
8849 838 15 -0.83 -13.190946064944583 -13.311792044676068 -73.59516273545952 0 0 0
8850 838 16 0.415 -12.561258452509714 -12.454932421621578 -73.70217240051129 0 0 0
8851 838 16 0.415 -13.840913981276232 -13.604225229016704 -74.4238280373664 0 0 0
9158 941 15 -0.83 -18.498530740790827 -15.791018260208954 -70.42610069714594 0 0 0
9159 941 16 0.415 -18.399491324483552 -14.796535926692844 -70.04894425947644 0 0 0
9215 960 15 -0.83 -21.919777229689583 -14.710470163666127 -78.96000396602037 0 0 0
9216 960 16 0.415 -21.99127502030945 -14.985372036770803 -77.92597895670367 0 0 0
9217 960 16 0.415 -21.622052157407662 -14.96889366486845 -79.7767807930653 0 0 0
9307 990 16 0.415 -16.432441027494573 -11.545951830100824 -74.51367841593375 0 0 0
9308 991 15 -0.83 -13.883951122431421 -19.312683243451445 -79.02389000440746 0 0 0
9309 991 16 0.415 -13.40169512138347 -20.08311301191509 -79.58799081724351 0 0 0
9310 991 16 0.415 -14.72249348789139 -18.773540179133896 -79.48420004491632 0 0 0
9359 1008 15 -0.83 -16.760330488501108 -20.305791729312745 -71.67619104397332 0 0 0
9360 1008 16 0.415 -16.65335104862446 -19.298025995284156 -71.33705508856977 0 0 0
9361 1008 16 0.415 -17.226244218911955 -21.043803217716228 -71.01888253059501 0 0 0
9446 1037 15 -0.83 -17.808495883051247 -19.90312661414455 -75.9088390741442 0 0 0
9447 1037 16 0.415 -17.410969011476915 -20.89569792386459 -75.95819956941355 0 0 0
9448 1037 16 0.415 -17.76592168794217 -19.27021184885203 -76.79885921048053 0 0 0
9479 1048 15 -0.83 -16.829840171046715 -15.347080675975953 -79.49909346194578 0 0 0
9480 1048 16 0.415 -17.46631514384592 -16.028331680489583 -78.97405038680878 0 0 0
9481 1048 16 0.415 -15.932251593692362 -15.72946520930114 -79.99057127320918 0 0 0
9560 1075 15 -0.83 -20.89122099724939 -17.560538935832216 -75.40772643697274 0 0 0
9561 1075 16 0.415 -20.392324381140135 -18.192946134448444 -74.7029366148837 0 0 0
9562 1075 16 0.415 -20.61340550531083 -17.623123238795607 -76.4646759141219 0 0 0
9773 1146 15 -0.83 -12.422011150352308 -16.158907819641946 -78.91668153284229 0 0 0
9774 1146 16 0.415 -11.359665139665607 -16.156179795491617 -78.79027292700265 0 0 0
9775 1146 16 0.415 -13.016703690567786 -15.380841299896193 -78.43038741873222 0 0 0
9824 1163 15 -0.83 -14.351049171132058 -18.29495453494883 -75.56025877411959 0 0 0
9825 1163 16 0.415 -14.511252747252428 -19.32802435487306 -75.78393501494736 0 0 0
9826 1163 16 0.415 -15.207654304780993 -17.615908181801597 -75.53980853744437 0 0 0
10265 1310 15 -0.83 -11.565857599976322 -13.248904195907615 -70.62460385636287 0 0 0
10266 1310 16 0.415 -11.007351817328692 -13.966840166412554 -71.18664553676352 0 0 0
10267 1310 16 0.415 -11.272102980017458 -12.197033391456214 -70.66462225809947 0 0 0
10286 1317 15 -0.83 -19.017162055842544 -21.22192011714038 -79.72413438659532 0 0 0
10287 1317 16 0.415 -18.34955494574343 -21.97814491662827 -79.35865451664687 0 0 0
10288 1317 16 0.415 -18.631411676995505 -20.22725874198865 -79.93569252096766 0 0 0
10904 1523 15 -0.83 -17.693515890437467 -15.155167782637346 -75.7915651879752 0 0 0
10905 1523 16 0.415 -18.41698777371621 -14.481386664009905 -76.20111673338687 0 0 0
10906 1523 16 0.415 -16.865606960104955 -14.751813761115981 -75.20050144789892 0 0 0
10928 1531 15 -0.83 -20.683832589501076 -11.385930079947904 -76.13328144694702 0 0 0
10929 1531 16 0.415 -19.709968667589653 -11.181560550472737 -76.52089874687871 0 0 0
10930 1531 16 0.415 -21.014462288869133 -12.428032027129666 -76.04768667635197 0 0 0
11049 1571 16 0.415 -21.985733667996755 -16.976823358388515 -73.56565210878334 0 0 0
11441 1702 15 -0.83 -12.901166054359013 -19.26481937102662 -71.1875617860574 0 0 0
11442 1702 16 0.415 -13.284525477632338 -19.72703713833066 -72.07510923039052 0 0 0
11443 1702 16 0.415 -11.859634923975849 -18.93192034652471 -71.17416305755606 0 0 0
7094 253 15 -0.83 -9.917459701904628 -13.979491164856556 -76.77374317418959 0 0 0
7095 253 16 0.415 -10.876364853169367 -14.041525329561672 -76.30205568041916 0 0 0
7096 253 16 0.415 -9.621083087884317 -13.044152601690843 -77.25537440436923 0 0 0
7097 254 15 -0.83 -6.364527279110877 -13.592750196534203 -70.05028772746779 0 0 0
7098 254 16 0.415 -5.753636183948036 -13.301879732505256 -70.87989809037616 0 0 0
7428 364 16 0.415 -8.370100319652702 -19.57276621457093 -70.93534186046574 0 0 0
7665 443 16 0.415 -6.64047814001155 -11.588721893343093 -77.20413413645456 0 0 0
7715 460 15 -0.83 -5.766127922559283 -19.63002633531517 -73.91858126353343 0 0 0
7716 460 16 0.415 -4.715205684364687 -19.462307275225164 -74.03190803939124 0 0 0
7717 460 16 0.415 -6.1106894797184985 -20.607349297090657 -73.56770162274448 0 0 0
8294 653 15 -0.83 -6.367556829999469 -13.455666920462088 -74.49657727680643 0 0 0
8295 653 16 0.415 -6.656001589887841 -14.254716717065044 -75.14660651518932 0 0 0
8296 653 16 0.415 -5.324180525836407 -13.383348796876675 -74.17532386500999 0 0 0
8375 680 15 -0.83 -2.009614154676346 -21.333959289024946 -71.08443110654079 0 0 0
8376 680 16 0.415 -1.2147906459468423 -21.983361427321405 -71.37095530535836 0 0 0
8377 680 16 0.415 -2.003799867740963 -20.894634958404147 -70.07671548969914 0 0 0
8699 788 15 -0.83 -7.167642727897948 -16.016839522239817 -72.13543618014928 0 0 0
8700 788 16 0.415 -7.735458570804002 -16.3368386135555 -71.28852175272075 0 0 0
8701 788 16 0.415 -6.997644821535123 -16.716532107773514 -72.95824063949406 0 0 0
8762 809 15 -0.83 -4.459865580649536 -16.02680534963586 -76.86666395311921 0 0 0
8763 809 16 0.415 -4.002434353179389 -16.890824940216437 -76.43381454687739 0 0 0
8764 809 16 0.415 -4.16697359856302 -15.720329811727474 -77.87553037918082 0 0 0
9671 1112 15 -0.83 -6.703293914014049 -18.55056261385011 -79.8273247080555 0 0 0
9673 1112 16 0.415 -7.905690183553938 -18.43758074672123 -79.98657051981893 0 0 0
9863 1176 15 -0.83 -0.6469231578173749 -15.073547277383694 -71.62362177549744 0 0 0
9864 1176 16 0.415 -0.2278751099501487 -15.549636530267913 -72.48444946339859 0 0 0
9865 1176 16 0.415 -0.021350620423453766 -14.923530322931434 -70.73982094100697 0 0 0
9920 1195 15 -0.83 -7.699200326710678 -21.497015531877153 -77.00518277844338 0 0 0
9921 1195 16 0.415 -7.683974091684768 -20.452462290714358 -76.7815253878149 0 0 0
9922 1195 16 0.415 -6.773826185393521 -21.977878502621618 -77.34698262011229 0 0 0
10022 1229 15 -0.83 -10.674881936286948 -21.58414808718676 -72.89224318825411 0 0 0
10023 1229 16 0.415 -9.857096241774496 -21.97708914169019 -73.44684719060534 0 0 0
10184 1283 15 -0.83 -6.9029172340770115 -14.428485784893137 -79.45493243153201 0 0 0
10185 1283 16 0.415 -7.329460191470524 -15.01066700129827 -78.59994488369453 0 0 0
10186 1283 16 0.415 -7.107416860991268 -13.580770637012353 -79.80043465692887 0 0 0
10478 1381 15 -0.83 -2.3975481449229106 -21.482303589281454 -75.96094598998361 0 0 0
10479 1381 16 0.415 -2.619448025189347 -20.520526025292526 -76.37018583439628 0 0 0
10480 1381 16 0.415 -1.836120256631325 -21.54405099260699 -75.02054397480885 0 0 0
10706 1457 15 -0.83 -1.5900038597383186 -17.424537368115022 -79.06888704878266 0 0 0
10707 1457 16 0.415 -1.0445689096813504 -17.260667495700034 -79.97482068788676 0 0 0
10708 1457 16 0.415 -1.1663128404849288 -17.065381809706203 -78.12528862662684 0 0 0
10793 1486 15 -0.83 -0.2648963203071281 -13.854989283642261 -77.58055260055055 0 0 0
10795 1486 16 0.415 -1.2033735346138417 -13.756265170602163 -78.13481177347845 0 0 0
11108 1591 15 -0.83 -10.01827217918464 -18.341131024411755 -74.78492649295082 0 0 0
11109 1591 16 0.415 -9.412682804156438 -18.734377203217523 -73.99648666050926 0 0 0
11110 1591 16 0.415 -9.582897480007341 -17.62323642830938 -75.48468376529328 0 0 0
11114 1593 15 -0.83 -1.475278355359121 -18.588898408507294 -73.04050482151926 0 0 0
11115 1593 16 0.415 -0.5144923349426708 -18.838653231411158 -72.64410223409912 0 0 0
11116 1593 16 0.415 -1.570299144319034 -18.35738988752915 -74.10294836029357 0 0 0
11324 1663 15 -0.83 -1.9669525423796268 -13.491808444567727 -74.77037749364925 0 0 0
11325 1663 16 0.415 -2.059406783805793 -12.983234391222547 -73.83392121260886 0 0 0
11326 1663 16 0.415 -2.304566411951367 -14.528166329598662 -74.84949986808107 0 0 0
11341 1668 16 0.415 -5.274968343312445 -20.371271260905672 -70.1224682763923 0 0 0
11375 1680 15 -0.83 -4.270068291705662 -21.075839604308335 -79.21496242626087 0 0 0
11376 1680 16 0.415 -3.7649697980134644 -21.962050193740087 -79.97993459409916 0 0 0
11377 1680 16 0.415 -3.988441216824448 -20.208437739071776 -79.37836907376429 0 0 0
11387 1684 15 -0.83 -0.18682916709195357 -20.744789352589205 -79.07730788894071 0 0 0
11389 1684 16 0.415 -0.766007418416266 -20.550230986251325 -79.99118728375156 0 0 0
11552 1739 15 -0.83 -9.044645934248212 -12.130817991415055 -73.09220297381351 0 0 0
11553 1739 16 0.415 -9.293026794082817 -11.997849957729036 -74.12318407609384 0 0 0
11554 1739 16 0.415 -8.277626604260735 -11.49237368249258 -72.64433287281607 0 0 0
11574 1746 16 0.415 -4.180210861398335 -21.99981048982376 -76.56467416754933 0 0 0
11575 1746 16 0.415 -5.4056581722596695 -21.99794218099116 -77.97242545611462 0 0 0
6961 208 16 0.415 -11.488213878758247 -3.53810080468615 -70.1019329254017 0 0 0
7262 309 15 -0.83 -13.051710016207865 -1.929534924454469 -74.26151217637364 0 0 0
7263 309 16 0.415 -14.074286918783761 -2.1777487765033294 -74.44112786499497 0 0 0
7264 309 16 0.415 -12.506635371340563 -2.4551676421114865 -73.47162410392384 0 0 0
7298 321 15 -0.83 -21.80878042519641 -4.47576289934199 -72.36936117581092 0 0 0
7299 321 16 0.415 -21.034067897327837 -5.033857097636184 -72.25779665982064 0 0 0
7300 321 16 0.415 -21.99214704445219 -3.7836566918055623 -73.26352010116646 0 0 0
7385 350 15 -0.83 -17.43613400937778 -2.0057360680129683 -76.91549883392105 0 0 0
7386 350 16 0.415 -16.521485903670506 -1.5027600738344387 -76.68449370107327 0 0 0
7387 350 16 0.415 -17.911690101091793 -1.8240085954448422 -77.88410688901635 0 0 0
7667 444 15 -0.83 -13.53547449757108 -8.451224129794142 -71.78630623529882 0 0 0
7668 444 16 0.415 -12.922951706217427 -9.301959791429882 -71.57336222734929 0 0 0
7669 444 16 0.415 -14.481723978848565 -8.329077188348888 -71.25381584736363 0 0 0
7766 477 15 -0.83 -14.298843115392883 -8.228046949992446 -75.92635418690153 0 0 0
7767 477 16 0.415 -13.964844704507522 -7.214460435528376 -75.86538441053268 0 0 0
7768 477 16 0.415 -15.164354136511866 -8.467785049577293 -76.54836468631393 0 0 0
7981 548 16 0.415 -11.27738571979222 -4.828322536378633 -76.32658143230556 0 0 0
8381 682 15 -0.83 -12.851177844137105 -0.24588128601690912 -70.42472657005766 0 0 0
8382 682 16 0.415 -13.634652935683024 -0.9702703433694048 -70.3419175673463 0 0 0
8837 834 15 -0.83 -20.821610753215953 -1.8744259064925324 -70.69383068106336 0 0 0
8838 834 16 0.415 -21.45447085901472 -1.1079258462188526 -71.08788910810287 0 0 0
9080 915 15 -0.83 -17.964185764714227 -5.59462734632119 -70.0948531761073 0 0 0
9081 915 16 0.415 -17.103948272018805 -5.98657287089959 -70.59648516636456 0 0 0
9305 990 15 -0.83 -15.849615231586164 -10.75620661701622 -74.03361025856111 0 0 0
9306 990 16 0.415 -15.419622188946626 -10.935385096297026 -73.07165317699786 0 0 0
9311 992 15 -0.83 -19.88360481914614 -7.059939020537855 -78.6716452708045 0 0 0
9312 992 16 0.415 -19.23183460123594 -6.8785960657419585 -79.49962765952328 0 0 0
9313 992 16 0.415 -20.476726925439404 -7.979868133373369 -78.64961624060211 0 0 0
9384 1016 16 0.415 -21.9897042755262 -0.08264445745669097 -75.68579386354911 0 0 0
9458 1041 15 -0.83 -17.96596744472318 -8.339267844410061 -74.80073883330442 0 0 0
9459 1041 16 0.415 -17.424788321217974 -7.542068890051052 -74.34031175434673 0 0 0
9460 1041 16 0.415 -18.370827656570565 -8.196679353044088 -75.80717241781197 0 0 0
9713 1126 15 -0.83 -19.321119709136607 -0.39104729908190394 -73.75279610584218 0 0 0
9714 1126 16 0.415 -19.606941748541885 -1.4188481235002512 -73.82205646660256 0 0 0
9715 1126 16 0.415 -18.44399403954714 -0.04520755049099684 -74.30918656309785 0 0 0
9951 1205 16 0.415 -11.37197166272685 -6.966032390495048 -73.79522844958215 0 0 0
9959 1208 15 -0.83 -14.064953057783105 -5.252867995772732 -72.67849915630394 0 0 0
9960 1208 16 0.415 -14.961449180946396 -5.641341962936971 -73.11057549380895 0 0 0
9961 1208 16 0.415 -14.026388224632674 -5.076488584877027 -71.59934842486453 0 0 0
10082 1249 15 -0.83 -15.007165353820419 -4.412380804448459 -78.41849960628073 0 0 0
10083 1249 16 0.415 -15.901193139719785 -4.235188227515816 -78.98184184653176 0 0 0
10084 1249 16 0.415 -15.06638275639423 -4.444350520635229 -77.32783345508852 0 0 0
10619 1428 15 -0.83 -14.134348333044034 -8.885157791750606 -79.99670083631918 0 0 0
10620 1428 16 0.415 -13.406555875710168 -9.376120819921828 -79.38295770849771 0 0 0
10621 1428 16 0.415 -15.193902671478863 -9.045087291455973 -79.800694627793 0 0 0
10865 1510 15 -0.83 -19.230838672515674 -4.439773037301198 -75.57272043838412 0 0 0
10866 1510 16 0.415 -19.863945684595375 -5.2536616214721805 -75.8582029301328 0 0 0
10867 1510 16 0.415 -18.67467437268152 -4.499975454867859 -74.63406438913927 0 0 0
10982 1549 15 -0.83 -11.162122922556156 -9.61032243438196 -76.94276393544617 0 0 0
10983 1549 16 0.415 -11.310481655317556 -10.402220670355678 -76.24135922167349 0 0 0
11069 1578 15 -0.83 -16.530364148867612 -2.2434855476807085 -71.36487294259558 0 0 0
11070 1578 16 0.415 -17.37939072801364 -1.6243917545896718 -71.1619943156496 0 0 0
11071 1578 16 0.415 -16.51114458080435 -2.8329963438050663 -72.28529911414893 0 0 0
6959 208 15 -0.83 -10.827835967657492 -2.853212167408571 -70.63974255798263 0 0 0
6960 208 16 0.415 -9.80783777860016 -3.1303536014309175 -70.79900190175582 0 0 0
7004 223 15 -0.83 -7.038238331557142 -2.349863908016728 -77.05124740661067 0 0 0
7005 223 16 0.415 -7.990665560344204 -1.9780809581181666 -77.36363301826879 0 0 0
7006 223 16 0.415 -6.99038494562965 -3.0721107405826893 -76.2313952827791 0 0 0
7127 264 15 -0.83 -0.9959425536357845 -1.2993214460880194 -71.39626666552476 0 0 0
7128 264 16 0.415 -1.2244098045954102 -0.4852599961745355 -72.05165188553427 0 0 0
7129 264 16 0.415 -1.1348204315871295 -1.1680917422374688 -70.31913788705891 0 0 0
7130 265 15 -0.83 -4.155089123741918 -3.3473584669749954 -70.11845442247542 0 0 0
7132 265 16 0.415 -3.2454424404436324 -3.789541275443296 -70.53652219352726 0 0 0
7313 326 15 -0.83 -0.6910750735933009 -10.897360703087358 -79.72184136823748 0 0 0
7664 443 15 -0.83 -6.968649147835051 -10.571432053669577 -77.16613774923024 0 0 0
7666 443 16 0.415 -7.535800985082654 -10.228712939627247 -76.29465903614944 0 0 0
7727 464 15 -0.83 -2.683198174576848 -3.394222857650501 -75.34615569185002 0 0 0
7728 464 16 0.415 -2.0650931813453544 -2.612184587654044 -74.96090092313794 0 0 0
7729 464 16 0.415 -3.7329538941223497 -3.1853359804518795 -75.56870425679548 0 0 0
7868 511 15 -0.83 -5.73794151520281 -7.030989851757597 -75.69379987506744 0 0 0
7869 511 16 0.415 -5.665267852818388 -6.0052349184878695 -75.39939491987063 0 0 0
7870 511 16 0.415 -6.090607660149274 -7.271697802052613 -76.7007144273813 0 0 0
7901 522 15 -0.83 -3.573647171995412 -2.483347059662498 -78.77624434649785 0 0 0
7902 522 16 0.415 -2.9450914782418263 -3.325700818511494 -78.77504888729332 0 0 0
7903 522 16 0.415 -3.2083264986870237 -1.9609559898719946 -79.97665827387266 0 0 0
7979 548 15 -0.83 -10.267511487348031 -4.442898131368319 -76.15270512011918 0 0 0
7980 548 16 0.415 -10.108950386911669 -3.7454041158101066 -75.35958586136586 0 0 0
8102 589 15 -0.83 -6.483378012030721 -0.24597585870907618 -79.8320928541865 0 0 0
8247 637 16 0.415 -10.532307791113121 -0.4743763409948011 -75.83438795046187 0 0 0
8369 678 15 -0.83 -10.229463476537815 -6.484258898728802 -78.9935685173109 0 0 0
8370 678 16 0.415 -9.27166633302835 -6.759221864250935 -78.60016770606536 0 0 0
8371 678 16 0.415 -10.286448360155553 -5.668891288097718 -79.71896857256688 0 0 0
9050 905 15 -0.83 -6.00832214906089 -9.151264804988074 -73.17112822099561 0 0 0
9051 905 16 0.415 -5.4213532516638265 -9.784004099333156 -72.54122963513937 0 0 0
9052 905 16 0.415 -6.575421823524307 -8.330253033421027 -72.72550037646863 0 0 0
9086 917 15 -0.83 -5.1539039387543015 -0.937714027519061 -72.36200212836229 0 0 0
9088 917 16 0.415 -4.2961928024625875 -1.4397099511240647 -72.82206147114489 0 0 0
9089 918 15 -0.83 -1.770003710097429 -10.020570067182389 -71.17349189477369 0 0 0
9090 918 16 0.415 -2.1063077458293984 -10.079853427058397 -72.18642683260646 0 0 0
9091 918 16 0.415 -2.494738081134041 -9.828651900204012 -70.37880903592063 0 0 0
9335 1000 15 -0.83 -6.48562444862423 -3.9762666249601977 -72.72009097430877 0 0 0
9336 1000 16 0.415 -6.108867196806121 -4.887202346673473 -72.30749209098614 0 0 0
9337 1000 16 0.415 -7.5176122254443225 -3.935605749858756 -73.07412981330556 0 0 0
9752 1139 15 -0.83 -3.315291948875744 -6.63833281754927 -72.66611248025757 0 0 0
9753 1139 16 0.415 -3.646193318411768 -7.046176847967206 -71.73764594504105 0 0 0
9754 1139 16 0.415 -3.2448498704374296 -7.291342719873447 -73.54295083559253 0 0 0
9896 1187 15 -0.83 -1.0383439404209749 -0.8958719449216362 -77.59484756082468 0 0 0
9897 1187 16 0.415 -0.29030286929773946 -1.339085851852178 -78.21668036486106 0 0 0
9950 1205 15 -0.83 -10.973371729686974 -7.915189204127861 -74.08853615113911 0 0 0
9952 1205 16 0.415 -10.290624071506372 -8.43591694632228 -73.41365207706676 0 0 0
10640 1435 15 -0.83 -3.1863957994806724 -7.254091927058186 -79.423800622948 0 0 0
10641 1435 16 0.415 -4.233766360288097 -7.468736072297861 -79.46528295417876 0 0 0
10642 1435 16 0.415 -2.792973195372921 -6.410339594368072 -79.9965197846825 0 0 0
10984 1549 16 0.415 -10.45725376578057 -9.747492795709064 -77.76457353966705 0 0 0
11153 1606 15 -0.83 -0.5005083852452022 -5.2414304700373195 -73.69346379831538 0 0 0
11154 1606 16 0.415 -0.11617597737227521 -6.235112641519006 -73.61009889598397 0 0 0
11155 1606 16 0.415 -0.49368541479214534 -4.591287244800824 -72.81414090457277 0 0 0
11231 1632 15 -0.83 -9.74909363203825 -0.06626324112957609 -72.03157045819623 0 0 0
11232 1632 16 0.415 -8.792388833836977 -0.2924391716491546 -72.44967500210146 0 0 0
11264 1643 15 -0.83 -3.1234399661085006 -10.24967777450996 -77.11583093390936 0 0 0
11265 1643 16 0.415 -3.560085171651197 -10.669108131837898 -77.99735611937409 0 0 0
11266 1643 16 0.415 -3.4423205608817926 -9.25482529898511 -76.78776460797056 0 0 0
11300 1655 15 -0.83 -10.062531707896753 -6.417836867405294 -70.81562307054512 0 0 0
11302 1655 16 0.415 -9.047035255678017 -6.317967280185593 -71.20940362697866 0 0 0
11330 1665 15 -0.83 -0.9255267927632326 -7.1124789082571045 -76.71610372043455 0 0 0
11331 1665 16 0.415 -0.4070561164439891 -7.994579595636422 -76.41008564756808 0 0 0
11332 1665 16 0.415 -0.5434619849325782 -6.536377550977393 -77.5637550195643 0 0 0
11450 1705 15 -0.83 -7.0649209007292395 -4.834133628452463 -79.71980659556179 0 0 0
11451 1705 16 0.415 -6.280415951712837 -4.894145806830206 -79.00835999194418 0 0 0
11580 1748 16 0.415 -8.238037322721212 -9.311890967108186 -70.02143984213804 0 0 0
13099 2254 16 0.415 -6.529363845426913 -10.018736493465642 -79.99045450913937 0 0 0
6971 212 15 -0.83 -18.442702720061586 -13.317664339656128 -63.037707442610554 0 0 0
6972 212 16 0.415 -18.309796522330988 -12.281446792982061 -62.812426346479974 0 0 0
6973 212 16 0.415 -18.936522268274615 -13.600180778597146 -63.97077927770457 0 0 0
7287 317 16 0.415 -11.088389245707518 -20.522199007665407 -63.006604929267226 0 0 0
7288 317 16 0.415 -11.222004145149864 -20.26396488771657 -61.16404543676494 0 0 0
7426 363 16 0.415 -21.986207242900335 -11.945997897882954 -69.7430481636033 0 0 0
7614 426 16 0.415 -21.986789817540505 -15.793113678102646 -64.54734075089296 0 0 0
7615 426 16 0.415 -21.985696820987364 -15.883618418451986 -66.4106036491222 0 0 0
7898 521 15 -0.83 -15.396600289989035 -16.024410660738436 -63.789182509022716 0 0 0
7899 521 16 0.415 -14.698420713193423 -15.231220170821295 -63.95579273669687 0 0 0
7900 521 16 0.415 -15.482209795770677 -16.822974673325945 -64.53057286959789 0 0 0
7928 531 15 -0.83 -12.256386577814915 -11.597818424234616 -63.599025800626116 0 0 0
7929 531 16 0.415 -13.010640701177648 -12.356460708993067 -63.61935098559245 0 0 0
8053 572 16 0.415 -15.113898501136532 -12.247774167126439 -69.39600601643697 0 0 0
8081 582 15 -0.83 -12.228411201381205 -15.948617808370916 -68.84383332300979 0 0 0
8082 582 16 0.415 -11.307943127347436 -16.461889116003157 -69.02285328557316 0 0 0
8083 582 16 0.415 -12.862785861758399 -16.266067674093946 -68.01308301196649 0 0 0
8351 672 15 -0.83 -16.548026985796607 -14.865733494595045 -66.95850223348097 0 0 0
8352 672 16 0.415 -17.54332109644508 -15.251642205698214 -66.90191817833244 0 0 0
8353 672 16 0.415 -15.95529820652533 -15.047776499051064 -67.85907453978318 0 0 0
8358 674 16 0.415 -21.230865489945714 -11.219424185606739 -63.96146010235158 0 0 0
8555 740 15 -0.83 -14.46700890010094 -19.60355573733807 -66.01884702533935 0 0 0
8556 740 16 0.415 -13.508438062979113 -19.8038210018015 -65.58806152530725 0 0 0
8557 740 16 0.415 -14.518318455861408 -19.07684843214363 -66.97715866291247 0 0 0
9092 919 15 -0.83 -13.467381390924205 -21.765503974203394 -69.11258189355266 0 0 0
9093 919 16 0.415 -14.333902932172006 -21.998576058663062 -69.69426987931672 0 0 0
9131 932 15 -0.83 -21.276939795747904 -12.776380939848245 -61.03684758729601 0 0 0
9132 932 16 0.415 -21.979838399326887 -13.581517848805857 -60.964075548834586 0 0 0
9133 932 16 0.415 -20.479746766457378 -12.708263780539696 -60.28602046583207 0 0 0
9160 941 16 0.415 -18.002517114847084 -16.613413261451008 -69.90200866119586 0 0 0
9194 953 15 -0.83 -14.270590161696354 -21.46374820499537 -61.53019646795165 0 0 0
9195 953 16 0.415 -13.986038974337612 -21.996741428800817 -62.41175135387824 0 0 0
9257 974 15 -0.83 -19.066979633536715 -19.527950240126877 -68.39282389031251 0 0 0
9258 974 16 0.415 -19.343708345947558 -20.55363260747697 -68.51264698505804 0 0 0
9259 974 16 0.415 -19.2470415061473 -19.038427272152262 -67.43089112282843 0 0 0
9860 1175 15 -0.83 -17.457505448884646 -15.317990975113107 -60.265708155555465 0 0 0
9861 1175 16 0.415 -17.455576074322558 -15.867472437203718 -61.18491938543369 0 0 0
9923 1196 15 -0.83 -15.828843637726024 -11.433961365443276 -60.54348587736752 0 0 0
9924 1196 16 0.415 -15.426426471677251 -11.262808502820878 -61.51800436285624 0 0 0
10169 1278 15 -0.83 -13.420350007379962 -16.09881771560341 -60.10295590179045 0 0 0
10170 1278 16 0.415 -14.122299950412549 -16.553235114823355 -60.7680604947425 0 0 0
10259 1308 15 -0.83 -16.457251695091255 -11.798426089057275 -65.49103709551521 0 0 0
10260 1308 16 0.415 -17.28982116626929 -11.754119042451006 -66.16135598049398 0 0 0
10261 1308 16 0.415 -15.464947261730149 -11.521776920891325 -65.85858455545863 0 0 0
10345 1336 16 0.415 -12.627808276084178 -12.553499483128457 -60.34435716049008 0 0 0
10499 1388 15 -0.83 -17.448357789524437 -19.636987810201422 -63.8617563474887 0 0 0
10500 1388 16 0.415 -17.818036657614268 -20.221329619817098 -64.67584331637153 0 0 0
10501 1388 16 0.415 -16.476520145246443 -19.887040566564668 -63.42467085031182 0 0 0
10541 1402 15 -0.83 -11.838957952275424 -11.393371674266989 -67.50036334880846 0 0 0
10543 1402 16 0.415 -12.547850177012545 -12.197251945685597 -67.2784520002095 0 0 0
10847 1504 15 -0.83 -21.35403161914902 -17.468442390786052 -64.12338906608358 0 0 0
10848 1504 16 0.415 -21.10080354275377 -18.46143494201373 -63.849677517368114 0 0 0
10849 1504 16 0.415 -20.855612549849766 -17.002217259053637 -64.98388146049669 0 0 0
11258 1641 15 -0.83 -21.249970469321706 -11.622302664290217 -69.248451115813 0 0 0
11259 1641 16 0.415 -21.990030345769217 -12.474836763173014 -69.53849569983694 0 0 0
11274 1646 16 0.415 -18.14800022160156 -19.26247836150282 -60.64833076182162 0 0 0
11275 1646 16 0.415 -16.351232548744836 -18.958848013522484 -60.25464269297835 0 0 0
11723 1796 15 -0.83 -11.608319091316808 -15.64457527553837 -62.838698617066626 0 0 0
11724 1796 16 0.415 -11.437078462259452 -16.69087793009923 -62.69692201378771 0 0 0
11725 1796 16 0.415 -11.149399168827795 -15.140432093224739 -63.69307955751128 0 0 0
7099 254 16 0.415 -7.345142923617267 -13.12641453308786 -69.92347538380727 0 0 0
7106 257 15 -0.83 -1.1761288906119178 -20.081942690210575 -60.848567951036365 0 0 0
7107 257 16 0.415 -1.7282908363540967 -20.865987746552726 -60.36721861993927 0 0 0
7108 257 16 0.415 -0.8245610974172864 -20.229108204903483 -61.87218849194338 0 0 0
7265 310 15 -0.83 -4.255776072781276 -17.01457506975384 -64.91853345663296 0 0 0
7266 310 16 0.415 -3.9489162829278723 -16.227126349301255 -65.57444609581883 0 0 0
7267 310 16 0.415 -3.5842080909347356 -17.328746335032108 -64.11483670868184 0 0 0
7286 317 15 -0.83 -10.691082387081067 -20.101555116898954 -62.10700702594849 0 0 0
7427 364 15 -0.83 -8.848638437280341 -19.625769656052842 -69.97891094624917 0 0 0
7429 364 16 0.415 -9.05725542947779 -20.60600017472429 -69.54265537926314 0 0 0
7496 387 15 -0.83 -9.097124451257281 -13.212554672755518 -66.45951901788769 0 0 0
7497 387 16 0.415 -8.127304004727918 -12.767510208965103 -66.40802010416839 0 0 0
7498 387 16 0.415 -9.429793114775013 -13.654080261177029 -67.40430332304565 0 0 0
7832 499 15 -0.83 -3.840722329328144 -20.91370583757694 -63.523630570870125 0 0 0
7833 499 16 0.415 -4.043372055846849 -21.972894551069597 -63.43202129834617 0 0 0
7834 499 16 0.415 -4.027489212121213 -20.283061349109786 -62.65068585404243 0 0 0
7844 503 15 -0.83 -1.3221431738343283 -14.104230552909051 -64.15299052384127 0 0 0
7845 503 16 0.415 -1.6607897491461379 -13.119938039421205 -64.39796985297991 0 0 0
7846 503 16 0.415 -1.8120624990636722 -14.64897476532339 -63.34099089201527 0 0 0
8243 636 15 -0.83 -10.492759392563215 -18.43952769456436 -65.51433884537762 0 0 0
8244 636 16 0.415 -9.68718647494292 -19.10549849111725 -65.7395713958732 0 0 0
8245 636 16 0.415 -10.506410049780866 -17.446817607404462 -65.9730319085362 0 0 0
8297 654 15 -0.83 -3.8190421661540284 -13.76434502222942 -60.17277518548304 0 0 0
8299 654 16 0.415 -4.235211632993116 -12.850140093183425 -60.60661218176652 0 0 0
8583 749 16 0.415 -6.643132088122825 -21.990590430943044 -60.14795742652911 0 0 0
8708 791 15 -0.83 -2.863958314143077 -12.91739430275768 -67.60404290854697 0 0 0
8709 791 16 0.415 -3.7614937304560994 -13.294374681889812 -67.16334896603392 0 0 0
8710 791 16 0.415 -2.8514572606308723 -12.698405832616489 -68.67726260697931 0 0 0
8870 845 15 -0.83 -5.736707360275867 -21.948076141275642 -67.16126684347107 0 0 0
8871 845 16 0.415 -6.71218207478642 -21.99615819885728 -67.63951547442191 0 0 0
8872 845 16 0.415 -5.549298272061347 -21.31704211124644 -66.34244600471905 0 0 0
9083 916 15 -0.83 -7.197048671872348 -15.911308645840657 -66.11143477558049 0 0 0
9084 916 16 0.415 -7.705165069506458 -15.91110038656411 -65.16965024672214 0 0 0
9085 916 16 0.415 -7.422541338085114 -16.69719083252927 -66.8379492579099 0 0 0
9239 968 15 -0.83 -7.517496055327076 -19.31607033754845 -63.251666368464605 0 0 0
9240 968 16 0.415 -6.825605238804156 -19.264420481160357 -64.06454521510396 0 0 0
9241 968 16 0.415 -7.136492031206689 -19.269353831095657 -62.22743612162117 0 0 0
9362 1009 15 -0.83 -6.06580658426924 -14.89855947601517 -62.46446745188774 0 0 0
9363 1009 16 0.415 -6.022302132470783 -15.956839664904434 -62.32084689214887 0 0 0
9364 1009 16 0.415 -5.45113139964997 -14.443726446625314 -63.24610678400747 0 0 0
9433 1032 16 0.415 -7.362075179356239 -11.973057399324269 -60.017796434266636 0 0 0
9495 1053 16 0.415 -0.5610282564478463 -15.179367097689862 -60.303080683617864 0 0 0
9507 1057 16 0.415 -3.5581982342897147 -17.052096515985 -60.201167785627284 0 0 0