Random packing of 249 x 'MPD-L.lmps', 102 x 'TMC-L.lmps', 98 x 'TMC-C.lmps'

6690 atoms
6690 bonds
9486 angles
16176 dihedrals
0 impropers

12 atom types
17 bond types
23 angle types
42 dihedral types

0.000000 65.000000 xlo xhi
0.000000 65.000000 ylo yhi
0.000000 65.000000 zlo zhi

Masses # id, mass [g/mol]

 1  12.0100000 # CA (carbon aromatic)
 2   1.0080000 # HA (hydrogen aromatic)
 3  12.0100000 # C  (carbon in carboxyl)
 4  16.0000000 # O  (oxygen)
 5  14.0100000 # N (nitrogen with 1 hydrogen)
 6   1.0080000 # HN (hydrogen on nitrogen)
 7  16.0000000 # OH (protonated carboxyl oxygen)
 8  14.0100000 # NH (nitrogen with 2 hydrogens)
 9   1.0080000 # HO (hydrogen on oxygen)
 10 12.0100000 # LC (crosslinked carbon)
 11 14.0100000 # LN (crosslinked nitrogen)
 12 12.0100000 # CT (terminated carbon on carboxyl group)


Pair Coeffs # id, epsilon [kcal/mol], sigma [Angstroms]

 1  0.0860000 3.3996695 # CA
 2  0.0150000 2.5996425 # HA
 3  0.0860000 3.3996695 # C
 4  0.2100000 2.9599219 # O
 5  0.1700000 3.2499985 # N
 6  0.0157000 1.0690785 # HN
 7  0.2104000 3.0664734 # OH
 8  0.1700000 3.2499985 # NH
 9  0.0000000 0.0000000 # HO
 10 0.0860000 3.3996695 # LC
 11 0.1700000 3.2499985 # LN
 12 0.0860000 3.3996695 # CT


Bond Coeffs # id, K [kcal/mol/Ang^2], r0 [Ang]

 1  harmonic    4.61100000e+02    1.39840000e+00 # CA-CA
 2  harmonic    3.45900000e+02    1.49060000e+00 # CA-C
 3  harmonic    3.45800000e+02    1.08600000e+00 # CA-HA
 4  harmonic    6.37700000e+02    1.21830000e+00 # C-O
 5  harmonic    4.27600000e+02    1.37890000e+00 # LC-LN
 6  harmonic    3.84200000e+02    1.41210000e+00 # N-CA
 7  harmonic    4.03200000e+02    1.01290000e+00 # N-HN
 8  harmonic    4.17900000e+02    1.38590000e+00 # CA-NH
 9  harmonic    4.04600000e+02    1.01210000e+00 # NH-HN 
 10 harmonic    3.45900000e+02    1.49060000e+00 # CA-LC
 11 harmonic    6.37700000e+02    1.21830000e+00 # LC-O
 12 harmonic    3.84200000e+02    1.41210000e+00 # LN-CA
 13 harmonic    4.03200000e+02    1.01290000e+00 # LN-HN
 14 harmonic    4.00100000e+02    1.35130000e+00 # CT-OH
 15 harmonic    3.71400000e+02    9.73000000e-01 # OH-HO
 16 harmonic    3.45900000e+02    1.49060000e+00 # CA-CT
 17 harmonic    6.37700000e+02    1.21830000e+00 # CT-O


Angle Coeffs # id, K [kcal/mol/rad^2], theta0 [degrees], K_UB [kcal/mol/Ang^2], r_UB [Ang]

 1  harmonic    6.66000000e+01    1.20020052e+02 # CA-CA-CA
 2  harmonic    4.82000000e+01    1.19880051e+02 # CA-CA-HA
 3  harmonic    6.87000000e+01    1.22600053e+02 # CA-C-O
 4  harmonic    6.43000000e+01    1.20330052e+02 # CA-CA-C
 5  harmonic    6.77000000e+01    1.15250050e+02 # CA-LC-LN (TMC-side)
 6  harmonic    6.38000000e+01    1.23710053e+02 # LC-LN-CA (MPD-side)
 7  harmonic    4.83000000e+01    1.17550051e+02 # LC-LN-HN
 8  harmonic    7.42000000e+01    1.23050053e+02 # O-LC-LN
 9  harmonic    6.79000000e+01    1.20190052e+02 # N-CA-CA
 10 harmonic    4.76000000e+01    1.16000050e+02 # CA-N-HN
 11 harmonic    6.83000000e+01    1.20950052e+02 # CA-CA-NH
 12 harmonic    4.84000000e+01    1.16070050e+02 # CA-NH-HN
 13 harmonic    7.79000000e+01    1.30250056e+02 # O-C-O (does not exist in protonated monomers)
 14 harmonic    4.01000000e+01    1.15120050e+02 # HN-NH-HN
 15 harmonic    6.87000000e+01    1.22600053e+02 # CA-LC-O
 16 harmonic    6.43000000e+01    1.20330052e+02 # CA-CA-LC
 17 harmonic    6.79000000e+01    1.20190052e+02 # LN-CA-CA
 18 harmonic    4.76000000e+01    1.16000050e+02 # CA-LN-HN
 19 harmonic    6.92000000e+01    1.13450049e+02 # CA-CT-OH
 20 harmonic    4.99000000e+01    1.06550046e+02 # CT-OH-HO
 21 harmonic    7.59000000e+01    1.22100052e+02 # O-CT-OH
 22 harmonic    6.87000000e+01    1.22600053e+02 # CA-CT-O
 23 harmonic    6.43000000e+01    1.20330052e+02 # CA-CA-CT


Dihedral Coeffs # id, K [kcal/mol], n, d [degrees], weighting factor for 1-4 interactions

 1  charmm    3.62500000e+00         2       180         0 # CA-CA-CA-CA
 2  charmm    1.10000000e+00         2       180         0 # CA-CA-CA-HA (improper)
 3  charmm    1.00000000e+00         2       180         0 # CA-CA-C-O
 4  charmm    2.50000000e+00         2       180         0 # CA-LC-LN-CA
 5  charmm    1.05000000e+01         2       180         0 # CA-LC-LN-O
 6  charmm    4.50000000e-01         2       180         0 # LC-LN-CA-CA
 7  multi/harmonic    2.00000000e+00    2.00000000e+00    0.00000000e+00    0.00000000e+00    0.00000000e+00 # O-LC-LN-HN
 8  charmm    1.05000000e+00         2       180         0 # CA-CA-NH-HN
 9  charmm    3.62500000e+00         2       180         0 # CA-CA-CA-C
 10 charmm    3.62500000e+00         2       180         0 # CA-CA-CA-LC
 11 charmm    3.62500000e+00         2       180         0 # CA-CA-CA-HA
 12 charmm    3.62500000e+00         2       180         0 # C-CA-CA-HA
 13 charmm    3.62500000e+00         2       180         0 # LC-CA-CA-HA
 14 charmm    3.62500000e+00         2       180         0 # N-CA-CA-CA
 15 charmm    3.62500000e+00         2       180         0 # LN-CA-CA-CA
 16 charmm    3.62500000e+00         2       180         0 # N-CA-CA-HA
 17 charmm    3.62500000e+00         2       180         0 # LN-CA-CA-HA
 18 charmm    3.62500000e+00         2       180         0 # CA-CA-CA-NH
 19 charmm    3.62500000e+00         2       180         0 # HA-CA-CA-HA
 20 charmm    3.62500000e+00         2       180         0 # HA-CA-CA-NH
 21 charmm    1.10000000e+00         2       180         0 # CA-O-OH-CT (improper) (changed from CA-O-O-C in unprotonated)
 22 charmm    1.10000000e+00         2       180         0 # CA-CA-CA-C (improper)
 23 charmm    1.10000000e+00         2       180         0 # CA-CA-CA-LC (improper)
 24 charmm    1.10000000e+00         2       180         0 # LC-CA-LN-HN (improper)
 25 charmm    1.10000000e+00         2       180         0 # CA-CA-CA-N (improper)
 26 charmm    1.10000000e+00         2       180         0 # CA-CA-CA-LN (improper)
 27 charmm    1.10000000e+00         2       180         0 # CA-CA-CA-NH (improper)
 28 charmm    1.10000000e+00         2       180         0 # CA-HN-NH-HN (improper)
 29 charmm    1.00000000e+00         2       180         0 # CA-CA-LC-O
 30 charmm    1.00000000e+00         2       180         0 # CA-CA-LC-LN
 31 charmm    2.50000000e+00         2       180         0 # CA-LC-LN-HN
 32 charmm    2.50000000e+00         2       180         0 # O-LC-LN-CA
 33 charmm    2.50000000e+00         2       180         0 # O-LC-LN-HN
 34 charmm    4.50000000e-01         2       180         0 # HN-LN-CA-CA
 35 charmm    2.30000000e+00         2       180         0 # CA-CT-OH-HO
 36 multi/harmonic    1.90000000e+00    1.90000000e+00    0.00000000e+00    0.00000000e+00    0.00000000e+00 # O-CT-OH-HO
 37 charmm    4.50000000e-01         2       180         0 # CA-CA-N-HN
 38 charmm    1.00000000e+00         2       180         0 # CA-CA-CT-OH
 39 charmm    1.00000000e+00         2       180         0 # CA-CA-CT-O
 40 charmm    3.62500000e+00         2       180         0 # CA-CA-CA-CT
 41 charmm    3.62500000e+00         2       180         0 # CT-CA-CA-HA
 42 charmm    1.10000000e+00         2       180         0 # CA-CA-CA-CT (improper)


Atoms

 1 1 1 -0.19950000 15.4721856975287 59.1788659285548 46.1979344129881
 2 1 1 -0.07600000 14.6339442350024 58.7918751838775 47.2475483486978
 3 1 1 -0.19950000 15.1791531274864 58.2157390131322 48.3985975988671
 4 1 1 0.01500000 16.855636052539 58.9897205024868 46.2993697274478
 5 1 1 0.00500000 17.3909631567729 58.4149353704991 47.4496944396566
 6 1 1 0.01500000 16.5527216942466 58.0279446258218 48.4993083753663
 7 1 2 0.13800000 15.0412990339149 59.6233003459034 45.3123754190211
 8 1 2 0.13600000 13.5667111039945 58.9377873697014 47.1692982489718
 9 1 2 0.13800000 14.5218322052036 57.9159389958359 49.2135510667156
 10 1 5 -0.21550000 17.0805887670077 57.4624702591654 49.6307212505579
 11 1 5 -0.21550000 17.6704813033993 59.3674737348188 45.2755876644026
 12 1 2 0.17200000 18.4680780760309 58.2676721459176 47.5286690773431
 13 1 6 0.14300000 17.2730674008428 59.7866046807025 44.4383950699194
 14 1 6 0.14300000 16.4799420563068 57.1797942278023 50.394735511038
 15 2 1 -0.19950000 6.75401303292879 56.62708020297 20.1377627040092
 16 2 1 -0.07600000 7.21432423551918 55.8312492425511 19.0847353163272
 17 2 1 -0.19950000 8.0890997309309 54.7718573031707 19.3427208806578
 18 2 1 0.01500000 7.16847732575013 56.3635192240086 21.4487756560219
 19 2 1 0.00500000 8.04029236192741 55.3060098630493 21.6973968421238
 20 2 1 0.01500000 8.5006035645178 54.5101789026304 20.6443694544418
 21 2 2 0.13800000 6.0781172671248 57.4435795768002 19.9282545029687
 22 2 2 0.13600000 6.89459463819987 56.0345677120357 18.0733824676317
 23 2 2 0.13800000 8.44486186812854 54.1547753453377 18.5188621797548
 24 2 5 -0.21550000 9.35842436709699 53.4698845407518 20.8901968558965
 25 2 5 -0.21550000 6.71879586623634 57.1401167102806 22.4732183968745
 26 2 2 0.17200000 8.36298241848116 55.1008088151436 22.718114069048
 27 2 6 0.14300000 6.08232637327924 57.9107547187773 22.2847412247951
 28 2 6 0.14300000 9.69588747737585 52.8893869527915 20.1328718268811
 29 3 1 -0.19950000 48.1075498363988 28.0243575752657 38.8331874294272
 30 3 1 -0.07600000 47.2587836110649 28.3596655171609 39.8920851954247
 31 3 1 -0.19950000 45.8792502826924 28.4396234745772 39.6809110470177
 32 3 1 0.01500000 47.5767827333603 27.7690075907868 37.5631155150229
 33 3 1 0.00500000 46.201040598581 27.8507894766637 37.3610133088617
 34 3 1 0.01500000 45.352274373247 28.1860974185589 38.4199110748591
 35 3 2 0.13800000 49.1723954778008 27.9650879850761 39.0063661684973
 36 3 2 0.13600000 47.6682325191231 28.5566497909017 40.8718549579652
 37 3 2 0.13800000 45.2222280871394 28.7012411702193 40.509148945135
 38 3 5 -0.21550000 43.9987391308518 28.2662712833153 38.219874830633
 39 3 5 -0.21550000 48.4055077976941 27.4424954301844 36.5328706039829
 40 3 2 0.17200000 45.7878004969296 27.6519812744623 36.3721716040754
 41 3 6 0.14300000 49.4091494177462 27.3845100001053 36.6872765248467
 42 3 6 0.14300000 43.3780080637061 28.5084734879113 38.9817350765896
 43 4 1 -0.19950000 48.727036491842 9.08438108644156 31.0838755154617
 44 4 1 -0.07600000 47.9988179242038 10.2667167742723 31.2447482571821
 45 4 1 -0.19950000 48.6326569891915 11.5025387362495 31.0863433393594
 46 4 1 0.01500000 50.0890941244679 9.13786736058793 30.7645978559185
 47 4 1 0.00500000 50.7132042063654 10.3733072777498 30.6084734928067
 48 4 1 0.01500000 49.9849856387272 11.5556429655805 30.7693462345271
 49 4 2 0.13800000 48.2282122307516 8.13407663220934 31.2083576459627
 50 4 2 0.13600000 46.9480877504638 10.2254559342166 31.4910481659726
 51 4 2 0.13800000 48.0609031124167 12.420810647778 31.2127324246903
 52 4 5 -0.21550000 50.6001467334242 12.7707160639617 30.6154820308876
 53 4 5 -0.21550000 50.7966847320913 7.98474474407451 30.6083168164783
 54 4 2 0.17200000 51.7736633631956 10.4149501626209 30.3598930293052
 55 4 6 0.14300000 50.3348264136375 7.08593040401701 30.7237277162322
 56 4 6 0.14300000 50.0793777597694 13.6309438776707 30.730407156947
 57 5 1 -0.19950000 43.0373810153186 32.8785589467788 51.9817803366315
 58 5 1 -0.07600000 43.0732821833903 33.8977884365225 52.9378045797173
 59 5 1 -0.19950000 43.6377578677636 35.1354881761577 52.6159869974473
 60 5 1 0.01500000 43.5659555316202 33.0970291966703 50.7039385112756
 61 5 1 0.00500000 44.1266556837343 34.3331684345206 50.3912483706153
 62 5 1 0.01500000 44.162556851806 35.3523979242643 51.3472726137011
 63 5 2 0.13800000 42.5990034052002 31.9253990414491 52.2400655778258
 64 5 2 0.13600000 42.6655246993862 33.729254243749 53.9235682735633
 65 5 2 0.13800000 43.6633078254437 35.9263190389845 53.3643410219994
 66 5 5 -0.21550000 44.7145196794918 36.5683243526488 51.0384685372884
 67 5 5 -0.21550000 43.5299459872834 32.1026571648779 49.7740312174523
 68 5 2 0.17200000 44.5381886999977 34.503263129079 49.3963572351596
 69 5 6 0.14300000 43.1190749866247 31.2023700358901 50.0089101356132
 70 5 6 0.14300000 44.7440619219614 37.3110008013578 51.7254612217056
 71 6 1 -0.19950000 63.0429259029346 32.4640727337376 39.5069066786007
 72 6 1 -0.07600000 61.9149513459578 31.9315327537072 40.1379174300799
 73 6 1 -0.19950000 61.7924665629668 30.5479027827277 40.294970228027
 74 6 1 0.01500000 64.0484156769204 31.6129827427884 39.0329487250687
 75 6 1 0.00500000 63.9187488241151 30.2354319860301 39.1933869369696
 76 6 1 0.01500000 62.7907742671384 29.7028920059997 39.8243976884487
 77 6 2 0.13800000 63.1284604871917 33.5348088772346 39.3902535778918
 78 6 2 0.13600000 61.1392878060259 32.5880878895822 40.5035421370903
 79 6 2 0.13800000 60.9117371117942 30.137962145899 40.787275324602
 80 6 5 -0.21550000 62.6642597192294 28.34725657876 39.9817083924073
 81 6 5 -0.21550000 65.1465245322031 32.1339269783145 38.4184781843412
 82 6 2 0.17200000 64.7015944338612 29.572797635934 38.8243768160053
 83 6 6 0.14300000 65.2349514589407 33.1407559766833 38.3045657325573
 84 6 6 0.14300000 61.8504437412592 27.9544282167187 40.4375476535251
 85 7 1 -0.19950000 11.4661629801614 3.50556877708918 32.1879978465029
 86 7 1 -0.07600000 11.4974008652564 2.95476603880614 33.4724201049658
 87 7 1 -0.19950000 10.4602328705428 2.1197127487166 33.8979416125918
 88 7 1 0.01500000 10.3977571003528 3.22131822528268 31.3290970956661
 89 7 1 0.00500000 9.3682205762092 2.38829529627748 31.7607536086552
 90 7 1 0.01500000 9.39945846130418 1.83749255799444 33.0451758671181
 91 7 2 0.13800000 12.2724703085997 4.14981967242434 31.8682959916966
 92 7 2 0.13600000 12.3215996868231 3.17404503591401 34.1350006841827
 93 7 2 0.13800000 10.4892305688211 1.69307489485478 34.8995599406722
 94 7 5 -0.21550000 8.38586687971097 1.01795334567995 33.4688356188084
 95 7 5 -0.21550000 10.3693119484275 3.75900165232481 30.0781424979224
 96 7 2 0.17200000 8.53639028407248 2.16698593808528 31.0920380240752
 97 7 6 0.14300000 11.1243097146347 4.36649771430668 29.7692300383183
 98 7 6 0.14300000 8.40164764107999 0.615523753215625 34.3973836200876
 99 8 1 -0.19950000 40.0886032227726 28.5426552275586 65.2471826944982
 100 8 1 -0.07600000 41.0970007784837 28.3877994531533 64.2915394248785
 101 8 1 -0.19950000 40.8006179977328 28.5432135003882 62.9342982078517
 102 8 1 0.01500000 38.7838228863107 28.8529250491988 64.845584747091
 103 8 1 0.00500000 38.4967599651059 29.0061228834219 63.4912120868314
 104 8 1 0.01500000 39.505157520817 28.8512671090166 62.5355688172117
 105 8 2 0.13800000 40.32756998512 28.42054896905 66.2937890904877
 106 8 2 0.13600000 42.1035456094686 28.148448447888 64.6013435557355
 107 8 2 0.13800000 41.5897779952766 28.4215386345206 62.1936756823417
 108 8 5 -0.21550000 39.2215300395306 29.002244116403 61.2031794615428
 109 8 5 -0.21550000 37.8028916791336 29.0033553183182 65.7782930085098
 110 8 2 0.17200000 37.4808952745749 29.2476901016989 63.1785393992072
 111 8 6 0.14300000 38.0192900523657 28.890125446419 66.7656383078717
 112 8 6 0.14300000 39.9464374804603 28.8916364741189 60.5055583956674
 113 9 1 -0.19950000 48.966650447809 10.2268561333884 5.37908730472904
 114 9 1 -0.07600000 48.8428419081362 8.84207296696226 5.233667129076
 115 9 1 -0.19950000 49.4482326772452 8.19825498548733 4.15056952340644
 116 9 1 0.01500000 49.6958497565908 10.9678213183395 4.44140987471251
 117 9 1 0.00500000 50.2960319592085 10.3187107284007 3.36500996497164
 118 9 1 0.01500000 50.1722234195357 8.93392756197457 3.2195897893186
 119 9 2 0.13800000 48.4951084340207 10.7153490594206 6.21957691825738
 120 9 2 0.13600000 48.2803167270759 8.27047125285707 5.95701828937446
 121 9 2 0.13800000 49.3488223862031 7.11919247905055 4.0417499422764
 122 9 5 -0.21550000 50.763217037237 8.29628966231474 2.16004061502148
 123 9 5 -0.21550000 49.8152111909186 12.3168713197233 4.58499588295034
 124 9 2 0.17200000 50.86376570676 10.8956050509698 2.63496110874449
 125 9 6 0.14300000 49.3744534891583 12.7846214327538 5.37331211397627
 126 9 6 0.14300000 50.6779095233761 7.2939860944266 2.04819167279319
 127 10 1 -0.19950000 11.5741218214935 60.4526919147027 15.3935046570764
 128 10 1 -0.07600000 10.8011770401423 60.3124332068443 14.2372244748317
 129 10 1 -0.19950000 11.2051356229097 60.9297577681114 13.0498627567926
 130 10 1 0.01500000 12.7510251856121 61.2102751838282 15.362423121282
 131 10 1 0.00500000 13.1465773157786 61.8221884360302 14.1752834142128
 132 10 1 0.01500000 12.3736325344274 61.6819297281718 13.0190032319681
 133 10 2 0.13800000 11.2535674097208 59.9717346914605 16.3063710320209
 134 10 2 0.13600000 9.8932801592508 59.7280118278045 14.2612016595874
 135 10 2 0.13800000 10.5994555122314 60.8174423406852 12.1517331178814
 136 10 5 -0.21550000 12.7638276847087 62.2844889783053 11.8514544771936
 137 10 5 -0.21550000 13.5025828526882 61.3456253130613 16.4900939134796
 138 10 2 0.17200000 14.0628806492709 62.4120211241352 14.1510842184872
 139 10 6 0.14300000 13.20803056953 60.8961700585884 17.3536498912326
 140 10 6 0.14300000 12.2093282551814 62.1874020171948 11.0103216074065
 141 11 1 -0.19950000 57.4307927196093 35.1836578966507 55.0843984724513
 142 11 1 -0.07600000 57.9442093910645 33.947853723437 55.4884917376012
 143 11 1 -0.19950000 59.0889284107307 33.4337761363684 54.8725026139244
 144 11 1 0.01500000 58.0620950678204 35.9053844827959 54.0643160836246
 145 11 1 0.00500000 59.2023047849995 35.3861517058263 53.4556132627252
 146 11 1 0.01500000 59.7157214564546 34.1503475326126 53.8597065278751
 147 11 2 0.13800000 56.5455636477943 35.5725976740203 55.5665761782749
 148 11 2 0.13600000 57.4572047224445 33.391093214125 56.2754124375532
 149 11 2 0.13800000 59.4849860093278 32.47053455352 55.1909426108863
 150 11 5 -0.21550000 60.8377182703934 33.6404213984716 53.2600412151953
 151 11 5 -0.21550000 57.5602151925204 37.1091855271131 53.6721686158659
 152 11 2 0.17200000 59.6938187561067 35.9480674050394 52.6614062599958
 153 11 6 0.14300000 56.727282332537 37.4825914822628 54.1208230969742
 154 11 6 0.14300000 61.2152115791673 32.7463412633171 53.5473033145976
 155 12 1 -0.19950000 32.9165525414153 51.753345504352 52.5613085202611
 156 12 1 -0.07600000 33.7074547790878 52.4307602034715 51.6287405732131
 157 12 1 -0.19950000 34.3588595752067 53.6121777069222 51.9948341051605
 158 12 1 0.01500000 32.7770550998616 52.2573483086832 53.8599699992564
 159 12 1 0.00500000 33.4294563062772 53.4351657921029 54.2167873777824
 160 12 1 0.01500000 34.2203585439498 54.1125804912224 53.2842194307344
 161 12 2 0.13800000 32.4170800906217 50.8409997958776 52.2688147953256
 162 12 2 0.13600000 33.8150670911436 52.0419580401303 50.6269160037025
 163 12 2 0.13800000 34.9738971050702 54.1362023367976 51.2646101503744
 164 12 5 -0.21550000 34.8618362678211 55.2714357050032 53.6364422625753
 165 12 5 -0.21550000 32.0060255220445 51.5957769439138 54.7669632293571
 166 12 2 0.17200000 33.3208475839247 53.827567975475 55.2278881007144
 167 12 6 0.14300000 31.5323671621668 50.7362369395832 54.4998701012662
 168 12 6 0.14300000 35.4361320676768 55.7673736862092 52.9666438951053
 169 13 1 -0.19950000 63.5744909964504 62.7092752505984 16.1744680095227
 170 13 1 -0.07600000 62.9465278801897 61.4604251319734 16.1861172938976
 171 13 1 -0.19950000 62.1552886706529 61.0884631426745 17.276844020355
 172 13 1 0.01500000 63.4112149031742 63.5861633799246 17.2535454516052
 173 13 1 0.00500000 62.6211419514466 63.2079379039877 18.3365644820477
 174 13 1 0.01500000 61.9931788351859 61.9590877853626 18.3482137664226
 175 13 2 0.13800000 64.1840311110722 62.9876575600387 15.3269043609054
 176 13 2 0.13600000 63.0724837235741 60.7839685750646 15.353686124291
 177 13 2 0.13800000 61.6681724426131 60.1143997323554 17.281116380108
 178 13 5 -0.21550000 61.2160010861087 61.5879939641755 19.4144145553062
 179 13 5 -0.21550000 64.0239171177912 64.8023938131918 17.2401465935167
 180 13 2 0.17200000 62.4940198502531 63.8906579475345 19.1767033476691
 181 13 6 0.14300000 64.5994698390733 65.0723422157148 16.446190092819
 182 13 6 0.14300000 60.7582404035472 60.68543341121 19.4298937585014
 183 14 1 -0.19950000 51.0127143907087 39.9689272249789 49.5341004524406
 184 14 1 -0.07600000 51.5837181768487 41.244288126236 49.4952514143801
 185 14 1 -0.19950000 52.7773362026381 41.4524292107483 48.7980761871605
 186 14 1 0.01500000 51.635328630358 38.9017074082339 48.8757742632815
 187 14 1 0.00500000 52.8244994115785 39.1174714914372 48.1833013659844
 188 14 1 0.01500000 53.3955031977185 40.3928323926944 48.1444523279239
 189 14 2 0.13800000 50.0899761521888 39.8180860179587 50.0755808984753
 190 14 2 0.13600000 51.1034157634049 42.0675719848678 50.0031030460171
 191 14 2 0.13800000 53.2181693642455 42.4479304472772 48.7708106100242
 192 14 5 -0.21550000 54.5656430830318 40.6039591275988 47.4627646057171
 193 14 5 -0.21550000 51.0773058320875 37.6599830248436 48.9149036934357
 194 14 2 0.17200000 53.3092490695912 38.2865646341143 47.6707474044248
 195 14 6 0.14300000 50.208815700189 37.5093006905338 49.4223677068611
 196 14 6 0.14300000 54.984961513469 41.5245643297031 47.4302359144707
 197 15 1 -0.19950000 51.5280108233037 45.062425989808 62.7158104789929
 198 15 1 -0.07600000 51.3915423674104 43.7833030178185 63.2629126477646
 199 15 1 -0.19950000 51.3578746828884 43.6189367686641 64.6506987347239
 200 15 1 0.01500000 51.630811594675 46.1771827126432 63.5564943971805
 201 15 1 0.00500000 51.5964096189289 46.0048539154686 64.9382755990099
 202 15 1 0.01500000 51.4599411630356 44.725730943479 65.4853777677816
 203 15 2 0.13800000 51.5530077029156 45.1792151774809 61.6419690374139
 204 15 2 0.13600000 51.3122389152096 42.9233478316313 62.6143850537341
 205 15 2 0.13800000 51.251402726725 42.6203024672712 65.071998218028
 206 15 5 -0.21550000 51.4262109798706 44.5573692612688 66.8451632724502
 207 15 5 -0.21550000 51.7637023424125 47.4224860941153 63.0213686761952
 208 15 2 0.17200000 51.6764473623537 46.8727716496759 65.5928080781702
 209 15 6 0.14300000 51.7881211774081 47.5413013164075 62.0115238052129
 210 15 6 0.14300000 51.3276287312428 43.6343366889312 67.2485147453114
 211 16 1 -0.19950000 0.430585755229808 23.8429947701752 13.3200678815439
 212 16 1 -0.07600000 -0.249598171733054 22.6371897124938 13.5136757025926
 213 16 1 -0.19950000 0.0880142600412477 21.8117424291945 14.5901303595128
 214 16 1 0.01500000 1.44838211396697 24.2233525445574 14.2029147174154
 215 16 1 0.00500000 1.77872457175029 23.3951884200125 15.273063325508
 216 16 1 0.01500000 1.09854064478743 22.1893833623311 15.4666711465567
 217 16 2 0.13800000 0.162386561976072 24.474173740144 12.4851533346547
 218 16 2 0.13600000 -1.03475536275887 22.3437708579704 12.8326224292059
 219 16 2 0.13800000 -0.44489927040365 20.8733173174964 14.7366277274178
 220 16 5 -0.21550000 1.4244442979615 21.3752896059702 16.5200173217062
 221 16 5 -0.21550000 2.10977933887529 25.3985431056033 14.0124393748846
 222 16 2 0.17200000 2.57115173676709 23.6913241157815 15.9604226477223
 223 16 6 0.14300000 1.86358211813116 25.9986214169804 13.2289899835946
 224 16 6 0.14300000 0.936374145616671 20.5008103287888 16.6665557814031
 225 17 1 -0.19950000 13.0241778203409 39.0919820751103 42.946743513522
 226 17 1 -0.07600000 11.9567841538855 38.3215047760114 42.4764930564419
 227 17 1 -0.19950000 12.189385081075 37.2995215052856 41.5515352179285
 228 17 1 0.01500000 14.3241724139859 38.8404761034835 42.4920361320887
 229 17 1 0.00500000 14.5474876655065 37.8202893039836 41.5703262034428
 230 17 1 0.01500000 13.4800939990511 37.0498120048847 41.1000757463627
 231 17 2 0.13800000 12.8342744385176 39.8796261454017 43.6615536450303
 232 17 2 0.13600000 10.953931181645 38.5155236684093 42.8272673221189
 233 17 2 0.13800000 11.3544145825462 36.7020824079852 41.1882298482965
 234 17 5 -0.21550000 13.7010226884505 36.0462354003283 40.1931443746552
 235 17 5 -0.21550000 15.3626460587821 39.5923257594578 42.9514864382971
 236 17 2 0.17200000 15.5596263134158 37.6244739403598 41.2163040278984
 237 17 6 0.14300000 15.1926375957653 40.3357496355517 43.6244783126583
 238 17 6 0.14300000 12.9331779089091 35.484255118051 39.8481913968993
 239 18 1 -0.19950000 3.27390770945777 51.1362505509483 53.4841352466751
 240 18 1 -0.07600000 3.4235236143159 50.2517250758351 54.5562032318744
 241 18 1 -0.19950000 3.5827886991602 48.8841708284506 54.3142734627058
 242 18 1 0.01500000 3.28355688944395 50.653221778677 52.1701374923073
 243 18 1 0.00500000 3.44275305157406 49.2891177368086 51.9375934213843
 244 18 1 0.01500000 3.59236895643219 48.4045922616954 53.0096614065835
 245 18 2 0.13800000 3.15141476165548 52.1914805080278 53.68132859195
 246 18 2 0.13600000 3.41607996118371 50.6243472715873 55.5698586423867
 247 18 2 0.13800000 3.69897651612797 48.1991573635999 55.1529372476409
 248 18 5 -0.21550000 3.74894346039603 47.0625506544548 52.7796423874925
 249 18 5 -0.21550000 3.13763224233557 51.5167293211553 51.1271318732192
 250 18 2 0.17200000 3.45026562742044 48.9130453355402 50.9145523126265
 251 18 6 0.14300000 3.02179682402025 52.511627883391 51.3039340415459
 252 18 6 0.14300000 3.85781768457847 46.4161228493577 53.5507957419597
 253 19 1 -0.19950000 10.6743135623314 55.9192011159918 39.2506752831587
 254 19 1 -0.07600000 9.86714461104124 55.2807523288064 40.1966992945953
 255 19 1 -0.19950000 10.0589633429013 53.9242523164699 40.4745720903828
 256 19 1 0.01500000 11.6733012454815 55.2011498908408 38.5825240675096
 257 19 1 0.00500000 11.8579843510333 53.8497788158269 38.8651693719802
 258 19 1 0.01500000 11.0508153997432 53.2113300286414 39.8111933834168
 259 19 2 0.13800000 10.5183316790448 56.967946546232 39.0428227521739
 260 19 2 0.13600000 9.09649696975399 55.8346775596372 40.7121302323818
 261 19 2 0.13800000 9.42748356278235 53.4314464016249 41.2124580013438
 262 19 5 -0.21550000 11.2334484179903 51.8815750711113 40.0884963469242
 263 19 5 -0.21550000 12.4585706356499 55.8251257824293 37.6612173479091
 264 19 2 0.17200000 12.6357676186288 53.2907246476736 38.3449659255105
 265 19 6 0.14300000 12.3184174100873 56.8121375129761 37.4595619063076
 266 19 6 0.14300000 10.6529033864232 51.4125860101377 40.7721751655298
 267 20 1 -0.19950000 30.2739867712956 29.5022553567115 16.9326153040971
 268 20 1 -0.07600000 31.4400034561968 30.050904671564 16.3908690352186
 269 20 1 -0.19950000 32.0308077515431 29.4627567876457 15.2687583672171
 270 20 1 0.01500000 29.6987743817406 28.3654581579407 16.352250904974
 271 20 1 0.00500000 30.2936873370123 27.7854302540137 15.2342856969662
 272 20 1 0.01500000 31.4597040219136 28.3340795688662 14.6925394280878
 273 20 2 0.13800000 29.8248211202375 29.9640334583902 17.8000316993304
 274 20 2 0.13600000 31.8837387281392 30.9278625106157 16.8385787145421
 275 20 2 0.13800000 32.9391855852218 29.8940132677736 14.8504671294068
 276 20 5 -0.21550000 32.0442064554557 27.7624980793855 13.5924705638496
 277 20 5 -0.21550000 28.5627537891725 27.832559151388 16.8816617681762
 278 20 2 0.17200000 29.8458434051445 26.9003524349707 14.782430557649
 279 20 6 0.14300000 28.1334514525503 28.2610412469641 17.6981191139949
 280 20 6 0.14300000 32.8884834445426 28.1541339629225 13.1947046773982
 281 21 1 -0.19950000 62.8927308408125 45.6244898625437 6.82364191357791
 282 21 1 -0.07600000 64.0590138311264 45.2854365609734 7.5156873204686
 283 21 1 -0.19950000 63.9965321985295 44.9779629319781 8.87791197633873
 284 21 1 0.01500000 61.6639662179015 45.6560695351188 7.49382116255736
 285 21 1 0.00500000 61.6102614754683 45.3483703370337 8.85125882379192
 286 21 1 0.01500000 62.7765444657823 45.0093170354633 9.54330423068261
 287 21 2 0.13800000 62.9512716747401 45.8605422590605 5.77090631673428
 288 21 2 0.13600000 65.0069179688006 45.2610750992726 6.99869189982731
 289 21 2 0.13800000 64.9080104452385 44.7144263366942 9.41256688253754
 290 21 5 -0.21550000 62.7224942882423 44.7067354660617 10.8789774587464
 291 21 5 -0.21550000 60.5289204958204 45.9866569018496 6.81766792419836
 292 21 2 0.17200000 60.6535804476305 45.3729573678243 9.37304123906878
 293 21 6 0.14300000 60.5751595822694 46.2102535802925 5.82652390223503
 294 21 6 0.14300000 63.5627211083218 44.4603563095467 11.3866350225174
 295 22 1 -0.19950000 31.290133934848 44.4826476580701 45.9825124376881
 296 22 1 -0.07600000 30.8048961402395 45.1689178790451 47.0995072749575
 297 22 1 -0.19950000 31.6882323379509 45.8739723832471 47.9221343520204
 298 22 1 0.01500000 32.658707927168 44.5014319412972 45.6881446774817
 299 22 1 0.00500000 33.5322685963629 45.2063522720476 46.5128743814032
 300 22 1 0.01500000 33.0470308017544 45.8926224930225 47.6298692186726
 301 22 2 0.13800000 30.599491637145 43.9405854759109 45.3527650222141
 302 22 2 0.13600000 29.7491390604498 45.1544271462699 47.3265909756881
 303 22 2 0.13800000 31.3052115335547 46.4070247614519 48.7911856885305
 304 22 5 -0.21550000 33.9075258729856 46.5859100988736 48.4406716162765
 305 22 5 -0.21550000 33.1293297689141 43.8321412005906 44.599399993694
 306 22 2 0.17200000 34.5978012046692 45.2209771782743 46.2836880538139
 307 22 6 0.14300000 32.4860147588952 43.3193620908572 44.0013169037263
 308 22 6 0.14300000 33.5635125028308 47.0851376899932 49.2511200189645
 309 23 1 -0.19950000 43.1412470141731 60.5010269513838 4.47354695514915
 310 23 1 -0.07600000 41.8086972675519 60.7384513194235 4.8228903996857
 311 23 1 -0.19950000 40.7784980494893 60.1723916071867 4.06634167469468
 312 23 1 0.01500000 43.4435975427317 59.6975428711072 3.36765478562158
 313 23 1 0.00500000 42.4112386780365 59.1372223308723 2.6190052904129
 314 23 1 0.01500000 41.0786889314153 59.3746466989121 2.96834873494945
 315 23 2 0.13800000 43.9304650184549 60.942975159469 5.06449257285663
 316 23 2 0.13600000 41.5754554312352 61.3582818956369 5.6760072161784
 317 23 2 0.13800000 39.7419554901518 60.3603943220287 4.34262866659643
 318 23 5 -0.21550000 40.0636972710354 58.8227813252593 2.23096380241942
 319 23 5 -0.21550000 44.7425377196661 59.4675228552012 3.02906180130523