LAMMPS data file via write_data, version 29 Oct 2020, timestep = 1020

6840 atoms
14 atom types
7238 bonds
18 bond types
11477 angles
23 angle types
20156 dihedrals
42 dihedral types

11.848023 53.151977 xlo xhi
11.848023 53.151977 ylo yhi
-0.195824 68.165387 zlo zhi

Masses

1 12.01
2 1.008
3 12.01
4 16
5 14.01
6 1.008
7 16
8 14.01
9 1.008
10 12.01
11 14.01
12 12.01
13 1.008
14 16

Pair Coeffs # lj/cut/coul/long/omp

1 0.086 3.39967
2 0.015 2.59964
3 0.086 3.39967
4 0.21 2.95992
5 0.17 3.25
6 0.0157 1.06908
7 0.2104 3.06647
8 0.17 3.25
9 0 0
10 0.086 3.39967
11 0.17 3.25
12 0.086 3.39967
13 0.0157 1.06908
14 0.2104 3.06647

Atoms # full

2514 1 2 0.0 20.309410108019865 20.77864227249293 8.000375035719754 0 0 0
6805 84 9 0.0 18.563602220464062 19.80573145233074 0.9243274056107371 0 0 0
6806 84 14 0.5 17.639509492725384 20.037006862130106 0.7256954855637331 0 0 0
6755 59 9 0.0 27.06395518340252 18.609420679307487 0.9227152835822398 0 0 0
6756 59 14 0.5 27.799896265088844 18.00415015361122 0.7250989301641878 0 0 0
1513 1 1 0.0 20.926656053692987 18.02040505392656 13.03764136922037 0 0 0
1516 1 1 0.0 20.559019916510607 17.20505562242558 14.124911993673877 0 0 0
1517 1 1 0.0 21.525174429570406 16.86056480448624 15.087633487281984 0 0 0
1519 1 2 0.0 20.210615217130158 18.25886317912743 12.256568415697433 0 0 0
1523 1 11 0.0 19.269706923745176 16.616770371938667 14.204437867268291 0 0 0
1524 1 2 0.0 21.256887027282108 16.19582863865582 15.905153425650088 0 0 0
1525 1 6 0.0 19.25857581426951 15.655115845531443 14.521031667582362 0 0 0
2292 1 11 0.0 17.16584041520457 12.326387184123062 15.563270716485746 0 0 0
2296 1 6 0.0 17.86375324427903 13.058260973856601 15.610135516211734 0 0 0
2507 1 1 0.0 21.632654709800672 21.203511316141853 9.656515193085001 0 0 0
2508 1 1 0.0 20.372846320333753 21.061951420450406 9.04691759347589 0 0 0
2509 1 1 0.0 19.194687860372802 21.300365649631008 9.77841553471363 0 0 0
2510 1 1 0.0 21.710170420198928 21.56538003083071 11.014099210885595 0 0 0
2511 1 1 0.0 20.529368866860214 21.786001781922213 11.739484583304106 0 0 0
2512 1 1 0.0 19.270007786557656 21.6896321512791 11.1269015077772 0 0 0
2515 1 2 0.0 18.230187411084156 21.203178872805527 9.289968064165336 0 0 0
2516 1 11 0.0 18.099245218002167 22.009189723313124 11.866932631173947 0 0 0
2518 1 2 0.0 20.595081629234095 22.05987051238199 12.789180418974754 0 0 0
2520 1 6 0.0 17.32372697040514 21.36313367972529 11.784416008593041 0 0 0
2591 1 1 0.0 13.189955909286468 22.156093086141606 10.637184386062419 0 0 0
2592 1 1 0.0 14.366994196920368 21.77283471044348 9.979662345183163 0 0 0
2597 1 2 0.0 12.410103581388947 21.419021914399526 10.810221020612872 0 0 0
2598 1 2 0.0 14.494962615772458 20.746643143621625 9.647793203721728 0 0 0
4275 1 2 0.0 15.776029768779045 21.375823305767593 12.772898262522116 0 0 0
4280 1 12 0.0 13.346440735507526 21.38400275446915 13.960149541986889 0 0 0
4281 1 4 0.0 13.503617582935812 20.316641448595647 13.392235777448787 0 0 0
4284 1 7 0.0 12.1229299501832 21.771404667974338 14.388648111380359 0 0 0
4473 1 1 0.0 12.03323062928262 14.625115241517166 16.73569660912674 0 0 0
4479 1 2 0.0 12.155692734489648 15.157611742447603 15.796401025678382 0 0 0
4485 1 4 0.0 14.551879574164397 16.046906959248766 16.452718604892965 0 0 0
4541 1 1 0.0 14.68101017809542 14.456458228908572 13.741051397392505 0 0 0
4542 1 1 0.0 14.555643386809798 15.751893860601013 13.201904621276142 0 0 0
4543 1 1 0.0 15.652767237555658 16.634619244190723 13.279426152687076 0 0 0
4544 1 1 0.0 15.875657986315463 14.035210918684228 14.357215383660721 0 0 0
4545 1 1 0.0 16.96245167565875 14.93456050266285 14.412525094069027 0 0 0
4546 1 1 0.0 16.866916419077377 16.23315965951153 13.869081759289482 0 0 0
4547 1 2 0.0 13.83709995089068 13.77446715903756 13.690142677019772 0 0 0
4548 1 2 0.0 15.574512985498746 17.63408931024771 12.862148646334138 0 0 0
4549 1 2 0.0 17.88917973187899 14.624372372452921 14.881960913462157 0 0 0
4550 1 10 0.0 15.96202472292589 12.649637257185995 14.95419704130142 0 0 0
4551 1 10 0.0 18.0450331470801 17.178265361557905 13.867987973074115 0 0 0
4552 1 12 0.0 13.258723133375252 16.16277731689661 12.554159061042954 0 0 0
4553 1 4 0.0 12.27413006594712 15.444274424972637 12.516958558444383 0 0 0
4555 1 4 0.0 17.930898579716935 18.34702700882735 13.534036980878952 0 0 0
4556 1 7 0.0 13.24112208504442 17.395272563827188 11.99402828246935 0 0 0
4557 1 9 0.0 14.124122380100891 17.7779071669973 12.137792515449673 0 0 0
4694 1 1 0.0 12.887449512912266 18.94315280223158 16.255033790277775 0 0 0
4554 1 4 0.0 15.014246358983172 11.880691894901691 14.93850294801843 0 1 0
4700 1 2 0.0 13.3503869000061 18.251983345869622 15.557591426998329 0 0 0
4709 1 7 0.0 15.729920566032888 18.83333867890011 16.16252019695607 0 0 0
4710 1 9 0.0 15.000708337454395 18.6044161567964 15.56036730914103 0 0 0
903 1 2 0.0 22.33218205793616 12.141226833205787 16.275237756600905 0 0 0
995 1 1 0.0 31.82109014301234 18.88905711820446 16.712018460503334 0 0 0
996 1 1 0.0 31.889419058533665 17.508366773278407 16.478332816981933 0 0 0
1001 1 2 0.0 32.14430527142065 19.584286919255224 15.943323289933328 0 0 0
1002 1 2 0.0 32.27729753402418 17.136953132581766 15.53486836492338 0 0 0
1514 1 1 0.0 22.243520429718238 18.490124866800357 12.925604022218742 0 0 0
1515 1 1 0.0 23.195748143948858 18.16891404205911 13.903845426589921 0 0 0
1518 1 1 0.0 22.843707736749202 17.339643014662443 14.984326017465126 0 0 0
1520 1 2 0.0 22.530776608365155 19.08574330958274 12.067736890106453 0 0 0
1521 1 2 0.0 24.21027984935858 18.53624338309724 13.797805073816065 0 0 0
1522 1 11 0.0 23.8085738860417 16.90404835820063 15.929238057685986 0 0 0
1526 1 6 0.0 23.686114236009193 15.956179730522711 16.264346023386903 0 0 0
1725 1 1 0.0 31.889344187544957 21.673515136327065 13.984687930807157 0 0 0
1731 1 2 0.0 31.535408879521935 20.761922576091642 13.516855098380997 0 0 0
2513 1 2 0.0 22.529930001632025 21.039756936158565 9.06872012406088 0 0 0
2517 1 11 0.0 22.916958900436832 21.76441623410642 11.728331086489034 0 0 0
6105 1 4 0.0 29.329734531570438 21.484673333148255 12.428377832784102 0 0 0
2796 1 11 0.0 32.0814591243709 13.187500776549944 14.248562538631065 0 0 0
2800 1 6 0.0 32.12765584423235 12.186453299448685 14.396797671600746 0 0 0
3333 1 1 0.0 25.542530183825892 15.798012214477186 11.328135731001307 0 0 0
3334 1 1 0.0 25.782317632585798 17.15494727094365 11.053296895846387 0 0 0
3335 1 1 0.0 26.37131648583344 17.979474708691775 12.025763257194559 0 0 0
3336 1 1 0.0 25.899169235528127 15.262954140739362 12.581162015999046 0 0 0
3337 1 1 0.0 26.448206544846528 16.1031727553306 13.56169501676806 0 0 0
3338 1 1 0.0 26.69909104798686 17.45596449034741 13.287436532776088 0 0 0
3339 1 2 0.0 25.093507855715767 15.173082303979598 10.562712390870617 0 0 0
3340 1 2 0.0 25.51769328389863 17.56650116717015 10.08365895725255 0 0 0
3341 1 2 0.0 26.560622073979502 19.02188139417669 11.799727427864468 0 0 0
3342 1 11 0.0 27.2203523108429 18.286731775605283 14.308591446582613 0 0 0
3343 1 11 0.0 25.78058607282854 13.8903559394382 12.911157781293843 0 0 0
3344 1 2 0.0 26.69703625656091 15.696669786954015 14.538824814910944 0 0 0
3345 1 6 0.0 25.837723981556238 13.710887961071368 13.906187627712855 0 0 0
3346 1 6 0.0 26.579942753129377 18.978522359137017 14.679389183116585 0 0 0
3733 1 2 0.0 27.060873958298714 12.589991041019921 14.621657861833645 0 0 0
3734 1 10 0.0 26.00195701220358 12.785572468592855 12.102503428347807 0 0 0
3738 1 4 0.0 26.01300961949707 12.83391918387078 10.883810431615455 0 0 0
3946 1 1 0.0 30.252775088143082 17.929748209189622 13.283422691243453 0 0 0
3947 1 1 0.0 31.24263731206322 17.211694407028553 12.585637511415788 0 0 0
3948 1 1 0.0 31.421295215899857 15.84668110010159 12.879250194159749 0 0 0
3949 1 1 0.0 29.45804889935776 17.30045641220438 14.25443090510463 0 0 0
3950 1 1 0.0 29.6578722733527 15.936651486191044 14.545783642424299 0 0 0
3951 1 1 0.0 30.65145591088158 15.201832980505477 13.866376416419438 0 0 0
3952 1 2 0.0 30.084573467485693 18.980765441739607 13.076507656803821 0 0 0
3953 1 2 0.0 32.13831138797236 15.271698293757776 12.304909766990162 0 0 0
3954 1 2 0.0 29.04195333794642 15.449817836625831 15.29706312461058 0 0 0
3955 1 10 0.0 28.425062252382205 18.11791916360076 14.969948208476966 0 0 0
3956 1 10 0.0 30.80457154387389 13.721704330299982 14.104434132722778 0 0 0
3957 1 12 0.0 32.10048447298257 17.866118863746298 11.533990565641762 0 0 0
3959 1 4 0.0 28.72610253292447 18.83225762667232 15.909757069334445 0 0 0
3960 1 4 0.0 29.826267164800885 12.998112037089962 14.155813741142566 0 0 0
3961 1 7 0.0 31.804456482794603 19.155288739391526 11.246953653154861 0 0 0
3962 1 9 0.0 31.0551273050371 19.401074814828426 11.816872525720683 0 0 0
5129 1 10 0.0 24.79037095033131 17.662493349735794 16.549653657055863 0 0 0
5133 1 4 0.0 24.91622673617144 18.85831526678207 16.343962303980256 0 0 0
6091 1 1 0.0 24.548835139000456 21.658248082120746 14.00429179378667 0 0 0
6092 1 1 0.0 25.103691215755095 21.517354502227732 12.718099892598845 0 0 0
6093 1 1 0.0 26.50057503300929 21.56895501407978 12.576125522138765 0 0 0
6094 1 1 0.0 25.354651755459823 21.86320436717704 15.134742527808278 0 0 0
6095 1 1 0.0 26.755762414810793 21.892110891523373 14.975648455714335 0 0 0
6096 1 1 0.0 27.337935204545193 21.757688906941805 13.695369453685236 0 0 0
6097 1 2 0.0 23.473145736073185 21.606669054798736 14.137988088172026 0 0 0
6098 1 2 0.0 26.93469380107132 21.467746730728578 11.585654763190291 0 0 0
6099 1 2 0.0 27.391299095720463 22.030240084077118 15.844711805113375 0 0 0
6100 1 10 0.0 24.672295606184477 22.063612461715447 16.463444141087304 0 0 0
6101 1 10 0.0 28.829831222632137 21.813938549534644 13.490854039481611 0 0 0
6102 1 10 0.0 24.208669977134743 21.307787845522014 11.524439322212881 0 0 0
6103 1 4 0.0 24.58542337993792 20.743789170549206 10.511368276291238 0 0 0
6104 1 4 0.0 23.463082429694644 21.93804633926861 16.58166762276381 0 0 0
6814 88 14 0.5 12.884604987490613 11.861716266349177 0.7259462061821884 1 0 0
1009 1 1 0.0 19.387115724069556 13.434955458129034 23.440456230812874 0 0 0
1010 1 1 0.0 19.432000115478118 13.38978314301527 22.038164208708988 0 0 0
1011 1 1 0.0 18.67659947613049 12.432888529342579 21.341983321074224 0 0 0
1012 1 1 0.0 18.586743414359802 12.526762907613573 24.15490382150483 0 0 0
1015 1 2 0.0 19.980939514955164 14.171916699433856 23.97117829578928 0 0 0
1016 1 2 0.0 20.056084717664756 14.091619989679947 21.492276551824926 0 0 0
1017 1 2 0.0 18.733488273265326 12.392111023120142 20.258418590720222 0 0 0
1628 1 1 0.0 12.633785708950581 12.284201602428464 22.771720367083745 0 0 0
1629 1 1 0.0 13.539498097984344 12.959594444542544 23.608984633778547 0 0 0
1630 1 1 0.0 13.627696433207307 12.637614351544169 24.97722105735707 0 0 0
1635 1 11 0.0 12.590655662667947 12.639757355178972 21.399392584888677 0 0 0
1636 1 2 0.0 14.188787437680723 13.717471282527324 23.18199449256713 0 0 0
1637 1 6 0.0 13.445602264510345 13.046402649527133 21.04066950397137 0 0 0
2041 1 11 0.0 15.161603069811939 21.14213881720302 24.840794796993148 0 0 0
2043 1 6 0.0 14.356625860741806 21.73369231681177 25.007817970779325 0 0 0
2291 1 2 0.0 18.528132387759157 12.146830560037694 17.82422695736205 0 0 0
2829 1 1 0.0 18.89062324591663 18.294161239929394 18.576930972272834 0 0 0
2830 1 1 0.0 18.44620278209481 16.965735064657956 18.691110273125847 0 0 0
2831 1 1 0.0 17.550670633337855 16.60246122308137 19.71077983871409 0 0 0
2832 1 1 0.0 18.456684844344363 19.26527707777541 19.503557630913356 0 0 0
2833 1 1 0.0 17.54019861142602 18.892471579175236 20.499396659174288 0 0 0
2834 1 1 0.0 17.07016560002961 17.572690903834136 20.605583637641395 0 0 0
2835 1 2 0.0 19.564824298405842 18.54987030863535 17.767042558124878 0 0 0
2836 1 2 0.0 18.795418235677648 16.21652973454662 17.986339507311147 0 0 0
2837 1 2 0.0 17.223833456025275 15.570409799615662 19.79962652271986 0 0 0
2838 1 11 0.0 16.17451734398713 17.19364638367996 21.641428639578937 0 0 0
2839 1 11 0.0 18.830059349489225 20.6383403821534 19.45626725326018 0 0 0
2840 1 2 0.0 17.19014851973883 19.64408125848664 21.191037203360235 0 0 0
2841 1 6 0.0 18.19580675881942 21.252587892853818 19.952823198876697 0 0 0
2842 1 6 0.0 16.361639714269558 16.290459573399847 22.05963795471241 0 0 0
3146 1 11 0.0 19.47816084596604 22.01337156494474 25.31377912964303 0 0 0
3150 1 6 0.0 19.136569506684566 21.625636098647085 24.4426376053117 0 0 0
3474 1 1 0.0 18.960330505776128 16.474352559970228 25.309664963071636 0 0 0
3475 1 1 0.0 19.08166874169415 16.813519852728497 23.952558395630128 0 0 0
3477 1 1 0.0 21.437256530792222 17.28253825441592 24.28932221824131 0 0 0
3478 1 1 0.0 20.31642473627642 17.242382446277386 23.43877318862989 0 0 0
3481 1 2 0.0 18.214457454635873 16.755274185521323 23.305869984284822 0 0 0
3482 1 11 0.0 20.413788557770296 17.64816103496567 22.07971668370525 0 0 0
3486 1 6 0.0 20.012713293350142 16.99933101172364 21.41324285287363 0 0 0
4394 1 2 0.0 16.281809404114224 21.804900181187676 21.018523528462396 0 0 0
4397 1 10 0.0 15.88139931419215 21.379200869280638 23.677284904538478 0 0 0
4401 1 4 0.0 16.823279006192116 20.68413339803669 23.339494610043452 0 0 0
4474 1 1 0.0 13.131889565829596 14.503401506978511 17.60794897761005 0 0 0
4475 1 1 0.0 12.971832328427256 13.818372975688838 18.82647365290437 0 0 0
4480 1 2 0.0 13.815028327817725 13.754406765594261 19.506496140655226 0 0 0
4484 1 12 0.0 14.4481543146273 15.134912759721386 17.252012057425347 0 0 0
4488 1 7 0.0 15.537573964898185 14.599700592452322 17.850528522114995 0 0 0
4489 1 9 0.0 15.215228397147518 13.879825161169865 18.420261835519838 0 0 0
4696 1 1 0.0 13.074491323558117 20.630862266054145 17.998044917254447 0 0 0
4701 1 2 0.0 13.692198663782133 21.210601935901632 18.67769500614455 0 0 0
4706 1 4 0.0 15.866176844561899 19.94816130933164 18.096603547010524 0 0 0
5507 1 1 0.0 21.725498807081223 19.720144538603186 22.500091807855473 0 0 0
5508 1 1 0.0 20.968266221111968 20.297217689804196 23.541026848327796 0 0 0
5511 1 1 0.0 21.594834898552822 21.0791439273139 24.537223353758908 0 0 0
5513 1 2 0.0 19.899342423382723 20.10770450742392 23.584472544943303 0 0 0
5517 1 10 0.0 21.1325688103827 18.716412469735417 21.551178800955867 0 0 0
5518 1 4 0.0 21.42554271062043 18.73274898220776 20.36901700887775 0 0 0
5740 1 10 0.0 19.89077799136701 21.26528090222291 18.81713249855616 0 0 0
5744 1 4 0.0 20.725300229656504 20.679657334424416 18.1476413316375 0 0 0
6301 1 1 0.0 13.107094098284472 17.71955240556784 23.71741290278471 0 0 0
6302 1 1 0.0 12.409702885522265 17.106040114952503 24.785451362774868 0 0 0
6303 1 1 0.0 13.006291433092176 16.008474834482602 25.438897630379017 0 0 0
6304 1 1 0.0 14.387401858052813 17.2716146361546 23.32495860423674 0 0 0
6305 1 1 0.0 14.989805468787143 16.22702393950006 24.053547541068816 0 0 0
6306 1 1 0.0 14.303547172056906 15.592790610963032 25.098499147597146 0 0 0
6307 1 2 0.0 12.65432455523972 18.545732552956387 23.17786432283332 0 0 0
6309 1 2 0.0 15.99406205511121 15.889631326411301 23.81626460375064 0 0 0
6310 1 10 0.0 15.094721755028983 17.906417261068338 22.15121042890452 0 0 0
6314 1 4 0.0 14.69902143100326 18.945366863746745 21.647267256018026 0 0 0
4705 1 12 0.0 15.173461091972227 19.478750355014903 17.21427266776678 0 0 0
4404 1 9 0.0 16.354408073662462 22.11381654088525 19.385149567345618 0 0 0
4695 1 1 0.0 13.683078765559667 19.67164435949168 17.161389423854644 0 0 0
5228 1 2 0.0 22.244434708569965 11.915750357536945 23.848841026740384 0 1 0
869 1 1 0.0 28.83744451100281 18.947600870514613 24.368839927700158 0 0 0
870 1 1 0.0 29.94282056288987 18.662464809346154 23.559770028280855 0 0 0
871 1 1 0.0 30.683500962511975 17.49625485853061 23.783090231385483 0 0 0
872 1 1 0.0 28.458216512381657 18.060177762315213 25.39402594671114 0 0 0
874 1 1 0.0 30.32983752660376 16.604825106954248 24.8103174303502 0 0 0
875 1 2 0.0 28.29037457660534 19.86787405623729 24.20157757741597 0 0 0
876 1 2 0.0 30.23794459384989 19.3536498054516 22.775494669183434 0 0 0
877 1 2 0.0 31.560124890916196 17.31739487531123 23.182177209041388 0 0 0
878 1 11 0.0 31.207144878233283 15.550485849842449 25.176326678962237 0 0 0
897 1 1 0.0 22.3624837187486 11.886447207302549 17.329595490636514 0 0 0
898 1 1 0.0 22.55801969293788 12.910656224953152 18.268949035244386 0 0 0
899 1 1 0.0 22.620816652104896 12.607863370218835 19.63744923000457 0 0 0
904 1 2 0.0 22.667675412445274 13.938803239199164 17.93598418775893 0 0 0
905 1 2 0.0 22.769879315068586 13.405778394187951 20.355272379239526 0 0 0
997 1 1 0.0 31.465536989401635 16.606833209066306 17.46720909354607 0 0 0
998 1 1 0.0 31.324852217556035 19.364271903354723 17.936917410160905 0 0 0
999 1 1 0.0 30.927353005990458 18.460151983366156 18.936340866506324 0 0 0
1000 1 1 0.0 31.005222844405658 17.076605132492794 18.710592376060895 0 0 0
1003 1 2 0.0 31.536386078220385 15.543169751190558 17.280449424365862 0 0 0
1004 1 11 0.0 30.72571216623918 16.18715142479054 19.779913166790646 0 0 0
1005 1 11 0.0 31.224284562979726 20.751244423978196 18.17858109021815 0 0 0
1006 1 2 0.0 30.5806029722406 18.83317795587088 19.89675733446311 0 0 0
1007 1 6 0.0 30.286405144709487 21.114733942247387 18.297432663141212 0 0 0
1008 1 6 0.0 30.99770225421764 16.517382362104964 20.697918068520167 0 0 0
2493 1 1 0.0 24.132479553035385 16.81505263099489 21.51595245374759 0 0 0
2494 1 1 0.0 23.1552743899057 15.82057612665369 21.669759285361746 0 0 0
2495 1 1 0.0 23.260993436421824 14.88727374684153 22.711137134908803 0 0 0
2496 1 1 0.0 25.23710336787191 16.870505673787523 22.38922313728985 0 0 0
2497 1 1 0.0 25.321865228487837 15.954153869248179 23.449804841606902 0 0 0
2498 1 1 0.0 24.342978054400312 14.954511234369496 23.60286422483056 0 0 0
2499 1 2 0.0 24.049565032605692 17.514423859080424 20.689833581946708 0 0 0
2500 1 2 0.0 22.321830722671116 15.767579536600898 20.975627173248228 0 0 0
2501 1 2 0.0 22.511370493456237 14.108396106018255 22.81648115142116 0 0 0
2502 1 11 0.0 24.49646936391197 13.959001274897561 24.59367510117136 0 0 0
2503 1 11 0.0 26.30473298252642 17.784077768503753 22.171442152487938 0 0 0
2504 1 2 0.0 26.18076564786664 15.979446334036098 24.115875800510192 0 0 0
2505 1 6 0.0 26.566066517340815 18.348148688236666 22.971294323766273 0 0 0
2506 1 6 0.0 24.554479608038594 13.005246377173396 24.258229420417226 0 0 0
3015 1 1 0.0 25.634361125473816 22.014710038572748 19.940626478336046 0 0 0
3020 1 11 0.0 25.802522960390192 21.54572223247106 22.32211552213267 0 0 0
3022 1 2 0.0 26.47137219473606 21.34365460722728 19.76479781414075 0 0 0
3024 1 6 0.0 26.814807103651013 21.571400053822586 22.29961128410007 0 0 0
3484 1 2 0.0 22.397971507755198 17.61822808766027 23.91106704706327 0 0 0
3989 1 10 0.0 32.276181040776336 21.583723996511317 18.512089176671815 0 0 0
5119 1 1 0.0 26.645699716557928 15.720275419753035 19.927671893024428 0 0 0
5120 1 1 0.0 26.077092244224527 14.927496753875479 18.911964292596004 0 0 0
5121 1 1 0.0 25.547596173413247 15.558560433067399 17.769779635757548 0 0 0
5122 1 1 0.0 26.661120937789676 17.12362791821411 19.81844871344282 0 0 0
5123 1 1 0.0 26.16289497526249 17.73508442966904 18.656155759619352 0 0 0
5124 1 1 0.0 25.54869900730009 16.965499945452763 17.649591130631272 0 0 0
5125 1 2 0.0 27.0266519744089 15.256431392441835 20.8331076130075 0 0 0
5126 1 2 0.0 25.080518672090548 14.948141835597749 17.00238945688932 0 0 0
5127 1 2 0.0 26.13519765331792 18.820079600647816 18.60164130094765 0 0 0
5128 1 10 0.0 27.023539107309496 17.980717524435626 20.997166255520998 0 0 0
5130 1 12 0.0 25.972270509868988 13.432759342353206 19.055538211452603 0 0 0
5131 1 4 0.0 25.743425713200203 12.685903015691817 18.119690873874102 0 0 0
5132 1 4 0.0 27.820411467988034 18.896899984572865 20.892871620681202 0 0 0
5134 1 7 0.0 25.963852176043755 12.974190414201173 20.329255767656424 0 0 0
5135 1 9 0.0 26.055153319830637 13.753246208700853 20.904964854960618 0 0 0
5506 1 1 0.0 23.09616419614494 20.00954598701122 22.405155485097872 0 0 0
5509 1 1 0.0 23.735802468524152 20.735772679791246 23.41940575082163 0 0 0
5510 1 1 0.0 22.991282420384515 21.24155462819052 24.494096388126337 0 0 0
5512 1 2 0.0 23.687047344586546 19.58918414984603 21.597968813016813 0 0 0
5514 1 2 0.0 23.501347449455736 21.81285962884636 25.265035703813556 0 0 0
5515 1 10 0.0 25.217776226514417 20.911052479045804 23.407468072992312 0 0 0
5519 1 4 0.0 25.88514432865915 20.487653990129747 24.32935403898475 0 0 0
5551 1 1 0.0 29.713541683312467 12.801164119026383 23.4466039600931 0 0 0
5552 1 1 0.0 29.00713602631738 12.372130456450636 22.31404724049749 0 0 0
5553 1 1 0.0 29.170532357390787 13.064509027866713 21.100358456643118 0 0 0
5554 1 1 0.0 30.547612628274944 13.927501545257018 23.39787210984211 0 0 0
5555 1 1 0.0 30.696459988360516 14.615023266941659 22.179665850224453 0 0 0
5556 1 1 0.0 30.00022075149446 14.199957547725282 21.023021895072443 0 0 0
5557 1 2 0.0 29.609748390116565 12.253359948554385 24.374121022586824 0 0 0
5558 1 2 0.0 28.613261363578427 12.748582409086552 20.224970427048696 0 0 0
5559 1 2 0.0 31.388797970113465 15.444638358901559 22.127486147801083 0 0 0
5560 1 10 0.0 31.344334677589043 14.286045114423485 24.619154807305584 0 0 0
5561 1 10 0.0 30.11678586677284 14.94236879960348 19.715829346028254 0 0 0
5564 1 4 0.0 31.981571858026843 13.429028395187263 25.206832681673333 0 0 0
5565 1 4 0.0 29.63952128225536 14.499562361266312 18.682935296870237 0 0 0
101 1 1 0.0 18.745988224280364 19.794734259288962 33.93464549262132 0 0 0
107 1 2 0.0 19.647337953802786 20.286542921377368 33.58516657554282 0 0 0
108 1 11 0.0 17.50538497386708 21.83837394984559 33.5186879605739 0 0 0
112 1 6 0.0 18.067773036444038 22.02351924046469 32.69673442516679 0 0 0
1019 1 11 0.0 18.521871946246964 12.617597736959478 25.569970722120505 0 0 0
1021 1 6 0.0 18.409015759873782 13.552271724147992 25.942896009877842 0 0 0
1634 1 11 0.0 14.589027516121725 13.238291961893164 25.83367150093682 0 0 0
1638 1 6 0.0 15.04824792061103 12.590040003802155 26.461948072456764 0 0 0
1642 1 1 0.0 15.2733617808953 11.941742576718978 32.29522716478486 0 0 0
1643 1 1 0.0 15.943134897271237 12.508000304641651 33.39896139217351 0 0 0
1649 1 11 0.0 15.375514117507645 12.504448510836404 30.99834583287918 0 0 0
1650 1 2 0.0 16.538153699199132 13.401130534480451 33.24651379963666 0 0 0
1651 1 6 0.0 15.784405629560904 11.888679147633177 30.30563256786002 0 0 0
1947 1 1 0.0 21.636777087412494 14.553270229453949 31.246862227354715 0 0 0
1948 1 1 0.0 21.497377984545754 15.101586973894019 29.959937265529582 0 0 0
1949 1 1 0.0 21.6758849292554 14.298201477755365 28.821940624457486 0 0 0
1950 1 1 0.0 22.003886752469352 13.206642785417667 31.402256826137037 0 0 0
1951 1 1 0.0 22.135954819657425 12.399818950407724 30.259148430425032 0 0 0
1952 1 1 0.0 21.96963499640325 12.929301507448933 28.971230791398817 0 0 0
1953 1 2 0.0 21.47719288358743 15.177875072366444 32.11747764908243 0 0 0
1954 1 2 0.0 21.243810294318074 16.149761634711027 29.840462210598442 0 0 0
1955 1 2 0.0 21.5667429892638 14.747555007614165 27.843208075191047 0 0 0
1956 1 11 0.0 22.125265134694903 12.012573616967613 27.90018744954871 0 0 0
1959 1 6 0.0 21.538362622840225 12.81266538917078 33.3927919823464 0 0 0
2015 1 6 0.0 11.945964071539075 12.776904254393017 33.67715969999856 0 0 0
2031 1 1 0.0 16.66269540506913 19.68281611719844 26.15648824193195 0 0 0
2032 1 1 0.0 16.833318863654068 18.68224774478735 27.123376861859867 0 0 0
2033 1 1 0.0 15.714009041673892 18.11349627784227 27.74645402575361 0 0 0
2034 1 1 0.0 15.369185584912145 20.115362357573773 25.801599808632226 0 0 0
2035 1 1 0.0 14.251429340510779 19.550902134887885 26.443827591705304 0 0 0
2036 1 1 0.0 14.420008148377779 18.550030500325267 27.421590792968022 0 0 0
2037 1 2 0.0 17.541058354807635 20.11962514150449 25.695457525459066 0 0 0
2038 1 2 0.0 17.83208290069481 18.351140680251877 27.391890795165878 0 0 0
2039 1 2 0.0 15.849739646037138 17.335194408127514 28.48944697266642 0 0 0
2040 1 11 0.0 13.327399823394915 17.922152236032343 28.074128083368056 0 0 0
2042 1 2 0.0 13.25549646604493 19.883022584243953 26.16538760159567 0 0 0
2044 1 6 0.0 13.514873480999533 16.979948118395264 28.394996011398256 0 0 0
2115 1 1 0.0 19.76426774678968 18.67564512218174 30.72703536550867 0 0 0
2116 1 1 0.0 18.818725015386686 19.62262238142859 30.305866770272758 0 0 0
2117 1 1 0.0 19.097967154934928 20.992171011275126 30.426841311345722 0 0 0
2118 1 1 0.0 21.007435868172735 19.08891916041185 31.234377808007995 0 0 0
2119 1 1 0.0 21.294427321350007 20.462984346408927 31.32949375383311 0 0 0
2120 1 1 0.0 20.318891805485666 21.419597221883198 30.977581015520435 0 0 0
2121 1 2 0.0 19.5194914170237 17.61994772348993 30.690386904902056 0 0 0
2122 1 2 0.0 17.85754835499636 19.295998921518763 29.920209819503302 0 0 0
2123 1 2 0.0 18.339689735772293 21.716695182562486 30.148130453991907 0 0 0
2125 1 11 0.0 21.85399811627484 18.121427156582573 31.831284831449597 0 0 0
2127 1 6 0.0 21.373976191596082 17.44915840074518 32.41703838190853 0 0 0
2487 1 2 0.0 12.139915093523584 22.074616469493343 30.668011038887464 0 0 0
3473 1 1 0.0 20.066102798906517 16.58786435013334 26.16682836426072 0 0 0
3476 1 1 0.0 21.302382774968834 17.031735214074924 25.661156887095327 0 0 0
3479 1 2 0.0 19.94288610573645 16.393070367813845 27.227753655693785 0 0 0
3480 1 2 0.0 18.001649391171615 16.15611652696709 25.703042990520654 0 0 0
3759 1 1 0.0 18.630353671209132 12.617483431463754 30.68914441363888 0 0 0
3760 1 1 0.0 18.39343629949103 13.62158396073459 29.73391127141307 0 0 0
3761 1 1 0.0 18.4305395480916 13.287459078576216 28.364803196344887 0 0 0
3764 1 1 0.0 18.70551584291073 11.969360312248453 27.94471616329971 0 0 0
3765 1 2 0.0 18.612601125291036 12.88393245212491 31.741200610938492 0 0 0
3766 1 2 0.0 18.25198080105887 14.060191818587613 27.62623599025845 0 0 0
3770 1 12 0.0 18.109535140659755 15.02690130442053 30.198184480649775 0 0 0
3771 1 4 0.0 17.99596381357465 15.335149791647808 31.372793918585916 0 0 0
3774 1 7 0.0 17.984845565260674 15.953404378903443 29.22133622073849 0 0 0
3775 1 9 0.0 18.11268478449678 15.485668784077486 28.377773459275307 0 0 0
4505 1 7 0.0 13.592894240810491 22.014353754830665 33.48799528139352 0 0 0
4779 1 1 0.0 14.43647001843778 16.09205388196931 31.27353079529535 0 0 0
4780 1 1 0.0 13.658561999733626 17.02965684807082 31.97787678204089 0 0 0
4781 1 1 0.0 12.694988369627492 16.563502521735256 32.895235138042665 0 0 0
4782 1 1 0.0 14.25359588836862 14.709028680297958 31.457447992554183 0 0 0
4783 1 1 0.0 13.291847799111455 14.268583496714758 32.384301294228244 0 0 0
4784 1 1 0.0 12.500675700329545 15.183735798461994 33.10664546077974 0 0 0
4785 1 2 0.0 15.164115550064103 16.438527130047706 30.54630629784671 0 0 0
4786 1 2 0.0 12.08304032059465 17.274362805078542 33.44236225835125 0 0 0
4787 1 2 0.0 13.09675344798157 13.208265739371674 32.47480134928054 0 0 0
4788 1 10 0.0 14.967027403432256 13.751015130857102 30.538862790225195 0 0 0
4790 1 12 0.0 13.855736756424065 18.501299119122965 31.724449126513992 0 0 0
4791 1 4 0.0 14.773702981057943 18.94955764465091 31.058606148455368 0 0 0
4792 1 4 0.0 15.173964279177454 14.059936661196819 29.378846536443184 0 0 0
4794 1 7 0.0 12.891792583562781 19.313054914292962 32.216915521226014 0 0 0
4795 1 9 0.0 12.246385163249478 18.737806547527494 32.66330775238861 0 0 0
4855 1 2 0.0 22.05453805492611 16.77947805867184 33.91971615573785 0 0 0
5232 1 10 0.0 21.92824671436178 12.13758151901856 26.53347788095768 0 0 0
5233 1 4 0.0 21.598045465205214 13.17787715913768 25.990236182564704 0 0 0
5516 1 10 0.0 20.81504292975043 21.79896451228683 25.603877695384295 0 0 0
6219 1 2 0.0 12.128326569426184 15.722632510297629 28.61808288641386 0 0 0
6220 1 10 0.0 12.117889162057985 18.47208850007405 28.472039964171685 0 0 0
6308 1 2 0.0 12.497289472519729 15.521744661704016 26.265618138249447 0 0 0
6311 1 10 0.0 15.01237700465744 14.556033953806237 25.910289859529026 0 0 0
6315 1 4 0.0 15.945398568439174 14.868817235424386 26.626630883836764 0 0 0
6583 1 4 0.0 21.13027567990319 18.69371310042107 27.94886124961443 0 0 0
6738 49 13 0.0 17.027165109377744 22.07070876359044 28.763996684205736 0 0 0
104 1 1 0.0 17.53147452001565 20.49832762213879 33.97695939493635 0 0 0
6699 10 13 0.0 30.65129477991285 16.273361735769235 27.46399711481931 0 0 0
1957 1 11 0.0 22.24959942030989 12.65418991234741 32.689216779272876 0 0 0
309 1 1 0.0 28.303273029048835 18.533513986318795 32.73674425085168 0 0 0
310 1 1 0.0 27.616010022440605 19.15396842696265 31.680782221012716 0 0 0
311 1 1 0.0 28.280450679618163 19.441849810294382 30.477102073480108 0 0 0
312 1 1 0.0 29.658884909402584 18.194783767177384 32.58968728460845 0 0 0
313 1 1 0.0 30.32093818678888 18.501618728495647 31.386380196508487 0 0 0
314 1 1 0.0 29.642904205846836 19.130382398037344 30.325667862131976 0 0 0
315 1 2 0.0 27.778346349578147 18.300296482487607 33.659156820883055 0 0 0
316 1 2 0.0 26.568878192039296 19.416728777801794 31.796917406674464 0 0 0
317 1 2 0.0 27.74365852856163 19.943567230899493 29.680365755527028 0 0 0
318 1 11 0.0 30.358881270850215 19.562923278657134 29.174260297454584 0 0 0
319 1 11 0.0 30.330570959320863 17.47930403989868 33.616392793216995 0 0 0
320 1 2 0.0 31.3732319994418 18.259237951697834 31.27998045662203 0 0 0
322 1 6 0.0 30.221184566173033 20.53399412142111 28.920465222853075 0 0 0
873 1 1 0.0 29.199706296730753 16.88196465702713 25.60407211243977 0 0 0
879 1 11 0.0 27.346056455906123 18.369778934563975 26.21963407906823 0 0 0
880 1 2 0.0 28.934456010723387 16.21523120107467 26.420517077265348 0 0 0
881 1 6 0.0 26.57217885713268 17.71711212138303 26.191805304375634 0 0 0
882 1 6 0.0 31.69195794246552 15.698823452388403 26.053186110330852 0 0 0
6584 1 4 0.0 28.080683749829596 20.36845173487201 27.015778514739576 0 0 0
1027 1 1 0.0 29.281687979432405 12.3655489232404 31.65089697076109 0 0 0
1028 1 1 0.0 30.27505554407587 12.524163016901555 32.62839601275611 0 0 0