LAMMPS data file via write_data, version 29 Oct 2020, timestep = 1646

6690 atoms
12 atom types
6690 bonds
17 bond types
9486 angles
23 angle types
16176 dihedrals
42 dihedral types

-5.0 70.0 xlo xhi
-5.0 70.0 ylo yhi
-5.0 70.0 zlo zhi

Masses

1 12.01
2 1.008
3 12.01
4 16
5 14.01
6 1.008
7 16
8 14.01
9 1.008
10 12.01
11 14.01
12 12.01

Pair Coeffs # lj/cut/coul/long/omp

1 0.086 3.39967
2 0.015 2.59964
3 0.086 3.39967
4 0.21 2.95992
5 0.17 3.25
6 0.0157 1.06908
7 0.2104 3.06647
8 0.17 3.25
9 0 0
10 0.086 3.39967
11 0.17 3.25
12 0.086 3.39967

Atoms # full

878 63 5 -0.5 3.5929361743596586 -1.1135907106023781 -3.872974712481211 0 0 0
5753 387 2 0.0 6.034919843871761 10.96371344491715 -3.8784968424540645 0 0 0
5757 387 3 0.5 7.099343897268732 13.434327846055906 -3.8829502613259117 0 0 0
876 63 2 0.0 0.11238165366051185 -4.129706561155284 -3.878022650810901 1 0 0
5748 387 1 0.0 7.120369667122241 10.932491462132326 -3.8783138023204935 0 0 0
5747 387 1 0.0 7.850292481521198 12.134357410379643 -3.8787923262705717 0 0 0
874 63 1 0.0 3.0851908694298364 -2.4381598446902166 -3.8763430764878555 1 0 0
882 63 6 0.0 4.601950618030405 -1.02668090653958 -3.8771198592070135 0 1 0
5756 387 3 0.5 6.960907705711705 8.432349083637666 -3.8823503649657756 0 0 0
5751 387 1 0.0 7.780501922322949 9.690275844227541 -3.8787818030097134 0 0 0
5760 387 4 0.0 7.430949500733911 7.308443115193751 -3.8778596969922674 0 0 0
877 63 2 0.0 1.010442662801059 -1.8129937570410004 -3.8771655312963578 1 0 0
871 63 1 0.0 1.6957634065232408 -2.656152209550788 -3.877295402799505 1 0 0
5750 387 1 0.0 9.191018708151864 9.656866368391809 -3.8782789661298436 0 0 0
5746 387 1 0.0 9.259989863065101 12.087571842150444 -3.8782298428362174 0 0 0
5754 387 2 0.0 9.711424830599725 8.703344993875708 -3.878595859708986 0 0 0
5749 387 1 0.0 9.939680030373964 10.849577107295339 -3.8786181822577284 0 0 0
5752 387 2 0.0 9.818757182092465 13.013969686337363 -3.878881224244848 0 0 0
5755 387 3 0.5 11.441805362331575 10.75942116020465 -3.882364063374574 0 0 0
5759 387 4 0.0 12.204597518467475 11.705102725955022 -3.8775715693891604 0 0 0
870 63 1 0.0 1.1862080274843552 -3.965508199935089 -3.8778740345144214 1 0 0
873 63 1 0.0 3.961847111069047 -3.541517408616432 -3.8767162807269644 1 1 0
880 63 2 0.0 5.036356602879994 -3.3786551178188624 -3.876318204732299 1 1 0
872 63 1 0.0 3.452982922450046 -4.855494482839778 -3.8763146601144016 1 1 0
570 41 5 -0.5 4.553690024468736 5.163747175245661 68.8706770698931 0 0 0
574 41 6 0.0 4.484037332211522 4.153199876005743 68.87695784835088 0 0 0
563 41 1 0.0 6.971036100779976 4.824651589688553 68.87732547345647 0 0 0
566 41 1 0.0 5.86721312306246 5.695214443988589 68.87581352914437 0 0 0
568 41 2 0.0 9.127306932554218 4.666364086187838 68.87830111858065 0 0 0
569 41 2 0.0 6.818182029230155 3.7487813918379516 68.87711615550361 0 0 0
572 41 2 0.0 5.226390875689781 7.764231852897681 68.87560302590934 0 0 0
573 41 6 0.0 6.77657835912629 9.589094293326662 68.8768147696484 0 0 0
561 41 1 0.0 8.484803762869552 6.731037705619032 68.8770777342189 0 0 0
562 41 1 0.0 8.276794634635575 5.341915902194239 68.87806564445695 0 0 0
564 41 1 0.0 7.387204725805737 7.609614172330854 68.87545372728324 0 0 0
565 41 1 0.0 6.077812955154291 7.088566795345619 68.876243949312 0 0 0
567 41 2 0.0 9.49810947584817 7.123258794093672 68.87684043090238 0 0 0
571 41 5 -0.5 7.607483782155158 9.00987999860435 68.86966355323996 0 0 0
1833 131 6 0.0 25.09547612451942 -3.2475276025029243 68.87696284311707 0 1 0
1831 131 5 -0.5 26.05309800991733 -3.5773518464180647 68.87105147621057 0 1 0
1827 131 2 0.0 28.38859699578862 -4.872581319843848 68.87701249789717 0 1 0
1824 131 1 0.0 26.22516255143584 -4.984147258132539 68.87584756112278 0 1 0
1653 119 1 0.0 14.214799325770656 16.339047839111977 -3.8770461342627085 0 0 0
1654 119 1 0.0 13.442953270391461 17.51384324491623 -3.8779912296988583 0 0 0
1655 119 1 0.0 12.039803999021041 17.43775467144504 -3.8773793232326574 0 0 0
1656 119 1 0.0 13.584312030117388 15.08235583331316 -3.875679397047051 0 0 0
1657 119 1 0.0 12.180595470248615 15.014383504813335 -3.8758034418667355 0 0 0
1658 119 1 0.0 11.405405930337327 16.183860257046106 -3.8754713700560397 0 0 0
1659 119 2 0.0 15.298622252121936 16.40595186493997 -3.8767345324021463 0 0 0
1660 119 2 0.0 13.93159127086235 18.483643486420075 -3.8784807752527204 0 0 0
1663 119 5 -0.5 14.353860563546764 13.892926996737794 -3.8713056569086364 0 0 0
1664 119 2 0.0 11.684847792986274 14.05605487290074 -3.87501016411965 0 0 0
1665 119 6 0.0 15.359567749193545 14.01744387501483 -3.8764116927457497 0 0 0
1661 119 2 0.0 11.449642053526388 18.350216855004412 -3.877893051858375 0 0 0
1662 119 5 -0.5 9.994552989901258 16.088820034624373 -3.8706404983472837 0 0 0
1666 119 6 0.0 9.4874946981776 16.965081508212652 -3.876252432522959 0 0 0
5318 358 2 0.0 21.267824931240817 22.00165854422019 -3.876553752141675 0 0 0
1888 135 2 0.0 27.99382345814522 28.30209168992531 6.731932150657085 0 0 0
5131 346 4 0.0 21.829761959262303 30.034116807650754 -3.872351915563696 0 0 0
5375 362 1 0.0 31.40105061190314 26.059275762123953 7.406417927241408 0 0 0
350 25 6 0.0 19.570427201147336 32.27342343520398 12.388737071915388 0 0 0
1300 93 2 0.0 31.116951101397795 31.06211107837597 -2.2534872665617343 0 0 0
3313 237 2 0.0 31.410560579980718 21.746913035658263 -3.863410993067848 0 0 0
4376 302 1 0.0 25.23534053681748 32.233702631457746 4.1830588399017605 0 0 0
5373 362 1 0.0 30.340374536941034 27.993178845152556 8.42845775897009 0 0 0
1293 93 1 0.0 30.045622531368814 30.923122494291036 -2.3709652019245944 0 0 0
994 71 6 0.0 30.896869630972922 14.516573701737604 -3.8814913649400618 0 0 0
3639 258 9 0.0 29.531937756348388 31.943698117813422 9.901521766112092 0 0 0
4380 302 3 0.5 26.59066448984908 30.527986276825263 7.281909301653328 0 0 0
3626 258 1 0.0 31.184363880713576 32.18441148293655 13.077301104987772 0 0 0
4381 302 3 0.5 24.01585988252493 32.18285413347981 3.3203978885009287 0 0 0
4200 291 9 0.0 31.761494435127126 30.391784746458537 0.32730829380662785 0 0 0
5316 358 1 0.0 23.330790288119697 22.641053381421628 -3.878228279295001 0 0 0
5321 358 3 0.5 23.866397096730836 21.237819013704655 -3.8812469576161672 0 0 0
5325 358 4 0.0 25.04999612253939 20.94889571418953 -3.8779693028220055 0 0 0
1289 93 1 0.0 27.765761532577393 31.634721702889703 -1.93035791429988 0 0 0
3312 237 2 0.0 29.10212261518367 20.8375467685881 -3.8889437421641464 0 0 0
2451 176 1 0.0 22.321458765761786 28.362840176470783 -0.8016236484203239 0 0 0
2452 176 1 0.0 21.923533243406894 29.666279449783076 -0.4590599992637906 0 0 0
2453 176 1 0.0 22.851865111268197 30.567642329398133 0.08790603918465598 0 0 0
2454 176 1 0.0 23.65091129772745 27.954578319444202 -0.5976608979476576 0 0 0
2455 176 1 0.0 24.57958443626083 28.863777253116353 -0.05426126673481737 0 0 0
2456 176 1 0.0 24.184465374801228 30.16939171268181 0.2899184053050099 0 0 0
2457 176 2 0.0 21.59723408247649 27.671207987025124 -1.2230570271646648 0 0 0
2458 176 2 0.0 20.89503690840094 29.977595605224106 -0.6166572756264966 0 0 0
5382 362 3 0.5 31.50984661709608 30.214486354518094 8.551923782306526 0 0 0
2461 176 5 -0.5 24.042834925196782 26.634891753942497 -0.9372003872233257 0 0 0
2463 176 6 0.0 25.018530464348142 26.408840090382075 -0.7903826246255621 0 0 0
4120 287 1 0.0 20.74439971600799 30.55701898234529 7.5978012734934035 0 0 0
5121 346 1 0.0 19.99026005724085 32.244901572914955 -3.8762083524465907 0 0 0
4198 291 4 0.0 26.937674452511942 25.35378868910548 -0.7547655481104883 0 0 0
5119 346 1 0.0 18.204006067133676 30.59441777645155 -3.8761407972237674 0 0 0
5120 346 1 0.0 19.585528522222134 30.89416896600436 -3.874070932578677 0 0 0
3629 258 2 0.0 30.277368747526854 31.449495247765395 11.273036641311707 0 0 0
5122 346 1 0.0 17.248428574642755 31.62434880829653 -3.8790563793455126 0 0 0
5372 362 1 0.0 31.495858903631543 28.759932221632607 8.19112235329832 0 0 0
5125 346 2 0.0 17.861400130269846 29.563888224059394 -3.8769359135295045 0 0 0
6446 433 3 0.5 23.36619839517559 31.824019000946837 12.38123851698433 0 0 0
5128 346 3 0.5 15.786645733839357 31.29038040452579 -3.887134433378783 0 0 0
5132 346 4 0.0 14.89304751996086 32.11958671821229 -3.878869581636717 0 0 0
5312 358 1 0.0 21.41721762443667 24.15942407941531 -3.876676179786535 0 0 0
5322 358 3 0.5 19.928926043545356 24.340883027284537 -3.8743666575667817 0 0 0
5323 358 4 0.0 19.369120242488243 25.42333671591388 -3.8757095647917232 0 0 0
4121 287 1 0.0 20.480921302812234 31.083306716623724 6.322464314716698 0 0 0
5130 346 12 0.0 20.63086171165997 29.808359300088675 -3.8738142271149396 0 0 0
5135 346 9 0.0 19.193025176402244 28.6000812028281 -3.8767824815628753 0 0 0
5313 358 1 0.0 21.94194431941038 22.85404929944944 -3.8770649686807044 0 0 0
2462 176 2 0.0 25.6071251316051 28.56087815120277 0.10632948703692317 0 0 0
6443 433 2 0.0 25.388616385212245 30.11248562899998 13.07434290753037 0 0 0
2460 176 5 -0.5 25.121532034011317 31.07717836269998 0.8414685091589217 0 0 0
3960 277 4 0.0 28.333970825453047 29.585676740246395 12.336582040856994 0 0 0
3958 277 4 0.0 30.49335721797766 23.742657033781065 10.875724319209331 0 0 0
3951 277 1 0.0 29.163007154593387 27.358674344860265 12.718172342737764 0 0 0
3948 277 1 0.0 29.560149514791963 26.173553072472473 12.081628951746383 0 0 0
5758 387 4 0.0 7.611330927391036 14.535316355734 -3.8781046567612156 0 0 0
3957 277 12 0.0 30.568231922443484 23.869201795183645 12.08609468399822 0 0 0
3956 277 3 0.5 28.638747546273354 28.492323298488056 11.890707402470715 0 0 0
1887 135 5 -0.5 29.724531174517658 30.213151398437798 6.032298967898488 0 0 0
4385 302 4 0.0 23.131732479469 31.35337286315101 3.437434525376478 0 0 0
3305 237 1 0.0 28.177623374530196 22.79439104497856 -3.8802420768847865 0 0 0
3306 237 1 0.0 29.267168426799092 21.911507811938087 -3.886073907984024 0 0 0
3307 237 1 0.0 30.572839411832355 22.422018763383576 -3.875113966260442 0 0 0
3308 237 1 0.0 28.39613902630032 24.18324030808324 -3.879243884260101 0 0 0
3309 237 1 0.0 29.708732292310703 24.684823994108243 -3.899511929472267 0 0 0
3311 237 2 0.0 27.17060333091887 22.396260651391167 -3.8757697068722448 0 0 0
3315 237 5 -0.5 27.304985579358547 25.079137718177687 -3.8352153797311046 0 0 0
3316 237 2 0.0 29.879566449430847 25.757298558160734 -3.898653374518473 0 0 0
3317 237 6 0.0 27.544290522143154 26.062059029842956 -3.8795369482148465 0 0 0
4116 287 1 0.0 21.55030042507012 28.49832838460661 6.582256167182847 0 0 0
4117 287 1 0.0 21.302318346841147 29.01904897195553 5.293812446198049 0 0 0
4118 287 1 0.0 20.749690510711996 30.309190087886552 5.179936914758686 0 0 0
4119 287 1 0.0 21.269850334457203 29.26099492277758 7.733762141771892 0 0 0
4122 287 2 0.0 21.971309642598868 27.5037925090801 6.698000316071663 0 0 0
4123 287 2 0.0 20.554534904790934 30.72729774830644 4.196468558053981 0 0 0
4125 287 3 0.5 21.53778596240235 28.717468897520067 9.103291820660562 0 0 0
4127 287 12 0.0 21.631286215737585 28.24566585801002 4.041185951944601 0 0 0
4128 287 4 0.0 21.454083182871805 28.685828080756487 2.917798348360834 0 0 0
4129 287 4 0.0 21.844924893066068 27.55842604736072 9.321077979250424 0 0 0
4131 287 7 0.0 22.193626855380764 27.028593321381223 4.227018660592227 0 0 0
4132 287 9 0.0 22.269944614041595 26.901673408400555 5.188248529259961 0 0 0
4184 291 1 0.0 30.931100435164144 28.496461736943587 -0.44784877241314913 0 0 0
4185 291 1 0.0 29.884301189104427 29.030766506998123 0.3365886400338731 0 0 0
4186 291 1 0.0 28.64527789624161 28.35969055224307 0.3722449225905635 0 0 0
4187 291 1 0.0 30.738946211118986 27.31982957350469 -1.1952448243846228 0 0 0
4188 291 1 0.0 29.51278207614221 26.644647482410058 -1.1054744289854461 0 0 0
4189 291 1 0.0 28.456908411186927 27.166060812112654 -0.34309448427678746 0 0 0
1883 135 2 0.0 30.973176301883445 29.370991454761317 3.798366555400031 0 0 0
4191 291 2 0.0 27.82572051980141 28.76071213803097 0.961373335801462 0 0 0
4192 291 2 0.0 29.369191824771804 25.71861646038483 -1.6416457381884837 0 0 0
4193 291 3 0.5 31.788044961897313 26.81721605481247 -2.1435530219023193 0 0 0
4194 291 3 0.5 27.132565057091256 26.47040164254957 -0.30579651135588054 0 0 0
4195 291 12 0.0 30.051998185781027 30.317108821208752 1.1009248153631563 0 0 0
4196 291 4 0.0 29.157332701898625 30.82846745816118 1.7531681351124335 0 0 0
1292 93 1 0.0 29.150014534452342 31.82847190422001 -1.7777510876339795 0 0 0
4199 291 7 0.0 31.246107474324127 30.935584414996075 0.948490057792962 0 0 0
1882 135 1 0.0 28.400904023257688 26.8230798770684 5.2187451296776874 0 0 0
3623 258 1 0.0 30.488069472392162 32.33279937853549 11.867788999574351 0 0 0
5134 346 7 0.0 20.164178715482937 28.538673960233304 -3.8732278734020644 0 0 0
5311 358 1 0.0 22.29463745880989 25.26425265881642 -3.877426580793455 0 0 0
5314 358 1 0.0 23.690540444916525 25.067087272645587 -3.8768645072333126 0 0 0
5315 358 1 0.0 24.193865506566432 23.75192278172099 -3.8771549554259823 0 0 0
5317 358 2 0.0 21.89283166841221 26.273269637528657 -3.8766405776682444 0 0 0
5319 358 2 0.0 25.26108641275026 23.585663004318754 -3.877382270163641 0 0 0
5320 358 3 0.5 24.648580666652197 26.228383454552674 -3.8684821058940773 0 0 0
5324 358 4 0.0 24.310473639154743 27.399696481042877 -3.8970589368371327 0 0 0
4379 302 2 0.0 24.664912272202336 30.5506012594253 5.422498239962488 0 0 0
1889 135 6 0.0 29.138167025101023 30.381190743144593 6.840691778121449 0 0 0
1297 93 2 0.0 27.813962804446646 28.822696675575077 -3.8779160921398366 0 0 0
3619 257 4 0.0 30.79300415152292 32.12866131416396 3.9941472539596594 0 0 0
1302 93 6 0.0 30.19827763005614 28.047128908692216 -3.9075477172801283 0 0 0
2763 198 1 0.0 19.983916613542014 28.84631115757614 13.569137575328707 0 0 0
3310 237 1 0.0 30.8004266104384 23.804983665865514 -3.8709785908798504 0 0 0
3314 237 5 -0.5 32.12187178003483 24.30167283806689 -3.8121681282064337 0 0 0
1290 93 1 0.0 27.285254473711777 30.542835670896398 -2.673969070599968 0 0 0
2459 176 2 0.0 22.535210825242864 31.57178597362589 0.355008644756479 0 0 0
1296 93 2 0.0 26.21489170199232 30.396452629935958 -2.789034485637154 0 0 0
5385 362 4 0.0 28.98190746198939 24.635046738794838 8.258638696538249 0 0 0
3947 277 1 0.0 30.10973775474535 25.105224691301945 12.815873387729562 0 0 0
5381 362 3 0.5 29.036533684995558 25.852165005105494 8.295853267009381 0 0 0
1291 93 1 0.0 28.18723193862825 29.655589557851645 -3.287927210572677 0 0 0
4124 287 2 0.0 20.542841827727226 31.155650512827204 8.482318214358974 0 0 0
2464 176 6 0.0 24.756439217341352 31.98291730002402 1.1093225724986622 0 0 0
1886 135 5 -0.5 27.52527890648426 25.870884865185683 5.786163647262609 0 0 0
3615 257 3 0.5 31.96835932606734 31.83331346486951 3.8664672988646362 0 0 0
908 65 2 0.0 23.898030138187917 31.795958166984146 8.853354953778759 0 0 0
910 65 6 0.0 22.550832739555187 31.95399534417249 6.903057619814017 0 0 0
4375 302 1 0.0 25.404344338504682 31.32655995933592 5.242863564631758 0 0 0
4371 302 1 0.0 27.442778354843156 32.472584981261065 5.904028094037781 0 0 0
3961 277 7 0.0 31.102134132373173 22.891827380225173 12.854315752727915 0 0 0
2760 198 1 0.0 22.32729415324633 27.357389478677472 13.164175977309831 0 0 0
2761 198 1 0.0 21.19819315669459 27.114732431155662 12.36970410274014 0 0 0
6368 428 2 0.0 16.48453760631695 31.787253116626662 11.844880847337153 0 0 0
5126 346 2 0.0 21.04736017666518 32.48893283434781 -3.877677955802394 0 0 0
2764 198 1 0.0 20.026426890061856 27.862357504322386 12.5672475541114 0 0 0
5379 362 2 0.0 31.363088285087475 25.021589603021454 7.086745738219226 0 0 0
2767 198 2 0.0 21.229658341247813 26.33607967386274 11.61338831319091 0 0 0
2768 198 5 -0.5 18.8753427170473 27.586835073026712 11.796922975933237 0 0 0
5378 362 2 0.0 29.476213096614355 28.454259289098353 8.89924573124093 0 0 0
3632 258 3 0.5 31.65983959769971 30.833888196398757 13.48396673809221 0 0 0
1298 93 5 -0.5 30.496767248296422 29.007635663536398 -3.7912130344196355 0 0 0
2772 198 6 0.0 18.03149588400247 28.0768372444597 12.068689719460531 0 0 0
4126 287 3 0.5 19.970004185912813 32.48299701750719 6.184175139635233 0 0 0
5376 362 1 0.0 30.2883523845956 26.6397470688191 8.046941967137194 0 0 0
1890 135 6 0.0 27.07472316520525 26.1430201090307 6.65174777690111 0 0 0
3953 277 2 0.0 29.458105581654 26.096579311019543 11.004574438919942 0 0 0
1294 93 1 0.0 29.571021528170036 29.858758152837915 -3.1500169341580997 0 0 0
1884 135 2 0.0 30.64840365671907 27.189430565094703 2.6747053167111887 0 0 0
1885 135 2 0.0 29.036521609505442 25.535480077033597 3.5971380315739268 0 0 0
6450 433 4 0.0 23.435604420489753 31.076293430483013 11.422081963535899 0 0 0
1249 90 1 0.0 25.259036967402203 26.61958199454529 8.843049822782872 0 0 0
1252 90 1 0.0 25.036968957059216 27.90329677531014 9.36910322359575 0 0 0
1255 90 2 0.0 25.038515193202755 26.410556622680325 7.7997245160258215 0 0 0
1256 90 5 -0.5 24.510703122982697 28.928623844966886 8.553022155778864 0 0 0
1260 90 6 0.0 24.29013800336081 28.66974261533467 7.598972434732467 0 0 0
4374 302 1 0.0 26.493773497544893 31.456113057617717 6.116010195336627 0 0 0
2766 198 2 0.0 23.23001891468147 26.776134117606766 13.008667651443364 0 0 0
714 51 6 0.0 31.70596240504738 29.773338849980874 11.554135648673642 0 0 0
4384 302 4 0.0 27.430902965595266 30.60560699631603 8.16133093201071 0 0 0
709 51 2 0.0 31.734412520249258 26.32452819612448 10.289578160539445 0 0 0
710 51 5 -0.5 31.559906274378932 28.81190273489921 11.271758320132854 0 0 0
1295 93 2 0.0 27.06281637462993 32.33184751762391 -1.486137871187651 0 0 0
1247 90 1 0.0 26.03761931092357 25.86195845032343 11.023039881663115 0 0 0
1248 90 1 0.0 25.76458545547712 25.60172543853155 9.669204198539587 0 0 0
1250 90 1 0.0 25.81149905395633 27.144491347870115 11.551627009715544 0 0 0
1251 90 1 0.0 25.32243130866335 28.16460714068894 10.718310313378076 0 0 0
1253 90 2 0.0 26.42830809392662 25.070828793735558 11.657097081528498 0 0 0
1254 90 2 0.0 25.941852874787628 24.61110338456068 9.26080264673746 0 0 0
1257 90 5 -0.5 26.095793539189923 27.41648569597798 12.910257029885035 0 0 0
1258 90 2 0.0 25.163085651727506 29.16015032687844 11.114414549297477 0 0 0
1259 90 6 0.0 26.032022160027 28.387087663227565 13.191665783185035 0 0 0
1877 135 1 0.0 30.245539958470157 28.673469305310586 4.194972970883761 0 0 0
1878 135 1 0.0 30.06586421839345 27.434972989961725 3.5577792217984636 0 0 0
1879 135 1 0.0 29.15126277654674 26.504350469336174 4.0750307904363074 0 0 0
1880 135 1 0.0 29.500190796543155 28.99607650450152 5.342909243757344 0 0 0
1881 135 1 0.0 28.56033873341768 28.074822057520755 5.834799817671979 0 0 0
2100 150 6 0.0 11.431932519441114 31.38350284478632 12.261994283771612 0 0 0
2096 150 5 -0.5 11.883739802251016 31.7831856215799 13.075649651935496 0 0 0
4190 291 2 0.0 31.88596498757392 29.009240813742267 -0.5118132726442916 0 0 0
5383 362 4 0.0 32.459571213049834 30.958598203861182 8.374804990742396 0 0 0
990 71 5 -0.5 31.637500835999965 15.209500352873047 -3.861919342932076 0 0 0
2770 198 2 0.0 19.064882704531048 29.39627218704841 13.74213631822663 0 0 0
627 45 5 -0.5 22.44899453041876 22.397201479565215 18.52241211220827 0 0 0
629 45 6 0.0 22.283879079869546 21.71938568905875 17.787997447335485 0 0 0
1787 128 2 0.0 17.270502597247695 22.304210283686512 22.477995474085656 0 0 0
3935 276 2 0.0 17.20233900829488 25.234164913092584 24.144209938361755 0 0 0
5515 371 3 0.5 22.015293072152147 21.70046090350417 21.51609552309993 0 0 0
5519 371 4 0.0 21.730648753525287 20.614446046677735 21.04105358393419 0 0 0
628 45 2 0.0 23.33141277317673 24.155251553963836 20.30894638930913 0 0 0
617 45 1 0.0 24.824444865575504 21.91067055345342 18.21944959728481 0 0 0
618 45 1 0.0 26.163247596708214 22.12556109663779 18.583413363493563 0 0 0
619 45 1 0.0 26.48270127742721 23.06940292011739 19.573222610790456 0 0 0
620 45 1 0.0 23.802713632177614 22.642923224531195 18.84585610690234 0 0 0
621 45 1 0.0 24.126587723504848 23.599997550900742 19.821426525207652 0 0 0
622 45 1 0.0 25.464582370777862 23.808909075655627 20.199064708675806 0 0 0
623 45 2 0.0 24.582043652274923 21.16998946969122 17.46231566392163 0 0 0
624 45 2 0.0 26.952924623622476 21.55618167494737 18.103443358752696 0 0 0
625 45 2 0.0 27.52008141522225 23.22219444165447 19.848961369475752 0 0 0
626 45 5 -0.5 25.778314978317205 24.74204666792451 21.21704288126868 0 0 0
630 45 6 0.0 24.99040397148916 25.222077014857774 21.635649398243938 0 0 0
2789 200 1 0.0 26.4511302913429 24.140587142211796 15.239370289996074 0 0 0
2792 200 1 0.0 27.084466561260086 24.664348106555575 16.378251084257432 0 0 0
2796 200 5 -0.5 28.31790014389779 24.12083881284271 16.802963665886807 0 0 0
3725 264 1 0.0 31.338226674377196 22.18890550508161 17.100852266407227 0 0 0
2794 200 2 0.0 24.73528483078686 24.268097885095393 13.93207513391495 0 0 0
4526 311 1 0.0 27.574612159586092 32.41597040135716 26.91195366248633 0 0 0
3728 264 1 0.0 30.409357948136215 21.139526256033026 16.983253742372153 0 0 0
3729 264 1 0.0 30.691304187883198 19.89191799800896 17.563050446016007 0 0 0
3730 264 1 0.0 31.897987365392755 19.689782671239634 18.257610370836606 0 0 0
3731 264 2 0.0 31.122680471907074 23.146456861760498 16.63967296839286 0 0 0
4035 282 1 0.0 16.18483409799288 30.774125048096632 22.544301083918516 0 0 0
3735 264 3 0.5 32.23779987455039 18.358353072871434 18.850177857001054 0 0 0
5668 381 4 0.0 17.04868764269845 25.44867463232067 32.19706002556 0 0 0
3739 264 4 0.0 31.487507035125855 17.397581543891995 18.84335351295356 0 0 0
3352 240 1 0.0 32.11310605347588 24.760822122634828 27.334495076387906 0 0 0
5667 381 3 0.5 15.872773531204924 25.740629617317015 32.06852805966594 0 0 0
5143 347 2 0.0 29.265457613574444 25.040256276185193 24.018515288668215 0 0 0
5148 347 4 0.0 29.077047113526888 23.59601696765684 21.899507505809677 0 0 0
5424 365 2 0.0 29.698327230006296 17.831460383677488 25.656973442247864 0 0 0
5426 365 3 0.5 30.3241716825398 20.431840639577644 25.22773386111485 0 0 0
5430 365 4 0.0 30.929156644176306 21.434299504583727 24.892932575289283 0 0 0
2285 164 1 0.0 8.722253774954567 31.754542964270772 20.391083016772697 0 0 0
2795 200 2 0.0 26.903684949111792 23.322611155915297 14.686982790767141 0 0 0
3733 264 2 0.0 29.98397479840957 19.076715556520202 17.446383984172527 0 0 0
2283 164 1 0.0 9.743163364310492 29.850773323492486 21.50941823819909 0 0 0
2284 164 1 0.0 8.750989151416292 30.378337792947953 20.667374746098062 0 0 0
2286 164 1 0.0 10.705433775702717 30.699418140459606 22.083083044668626 0 0 0
2289 164 2 0.0 9.761576071490543 28.784577492457533 21.717306946025246 0 0 0
2290 164 2 0.0 8.006333004123311 29.721250049197547 20.227619483096746 0 0 0
2293 164 5 -0.5 11.709086260806952 30.158789147207454 22.91853699938317 0 0 0
2295 164 6 0.0 11.689954050480319 29.153348339893206 23.039931948541597 0 0 0
3640 259 1 0.0 12.86274326642985 31.674405748009242 19.268475243994455 0 0 0
1968 141 2 0.0 31.863734965924547 30.161954510045057 30.5390183301617 0 0 0
3348 240 1 0.0 31.495034923179258 23.812439856507652 29.484114331529995 0 0 0
3646 259 2 0.0 13.56337114086232 31.74029027794898 20.09618481610026 0 0 0
4537 311 4 0.0 31.963712736691402 32.48225912506431 29.47091621818587 0 0 0
3954 277 2 0.0 28.948978934409517 28.37192891158975 14.611821236766316 0 0 0
3351 240 1 0.0 31.03771540965012 24.086445089158367 26.733543051354978 0 0 0
4045 282 4 0.0 14.39493975763335 28.869294205088345 23.867024325291478 0 0 0
6099 410 2 0.0 9.98592059422281 26.395376110326964 25.577308924031456 0 0 0
6101 410 3 0.5 11.128677352639468 24.520733667168084 27.221481424593776 0 0 0
6105 410 4 0.0 10.282643172202489 23.962367302924132 26.54374489973675 0 0 0
1437 103 2 0.0 20.633268894229573 21.389942407752876 30.979292335372456 0 0 0
1792 128 6 0.0 19.29097840102851 21.852110026211058 23.648744726453216 0 0 0
1779 128 1 0.0 17.765608844909586 24.919976694094355 20.33648087881573 0 0 0
1780 128 1 0.0 17.10241496008703 23.88402072313389 21.01435871057092 0 0 0
1781 128 1 0.0 17.792841376229337 23.098290392339166 21.952494478376916 0 0 0
1782 128 1 0.0 19.127296831104065 25.15919985786388 20.58208515620284 0 0 0
1783 128 1 0.0 19.82074697854372 24.35765971602263 21.50635154456408 0 0 0
1784 128 1 0.0 19.152481283655685 23.34045169074428 22.212444791241932 0 0 0
1785 128 2 0.0 17.224355363338926 25.532311625704832 19.62026723366427 0 0 0
1786 128 2 0.0 16.051983877356875 23.693305512198613 20.81671660875089 0 0 0
1788 128 5 -0.5 19.836011608827498 22.56912018775623 23.186173082865544 0 0 0
1789 128 5 -0.5 19.790277905557065 26.208799344617187 19.90674771870051 0 0 0
1790 128 2 0.0 20.876942062778312 24.529868536520894 21.675327779236266 0 0 0
1791 128 6 0.0 20.731151311431105 26.416242142281792 20.220076827459412 0 0 0
3525 252 1 0.0 24.37854714470796 28.61596705378114 21.99671581976985 0 0 0
3526 252 1 0.0 25.21813154995125 29.43797283558952 22.764818349659784 0 0 0
3529 252 2 0.0 23.326840199490658 28.571114665172118 22.228108562157704 0 0 0
3531 252 3 0.5 24.646767289435015 30.215953053654562 23.913873252032307 0 0 0
3535 252 4 0.0 25.21244912796249 31.154908647660758 24.44595491566997 0 0 0
3641 259 1 0.0 12.666791007149433 30.449468252706392 18.598675728252797 0 0 0
3642 259 1 0.0 11.773975244318464 30.404542536982643 17.508069459251168 0 0 0
3645 259 1 0.0 11.092223120663824 31.557524239166767 17.082966402076284 0 0 0
3647 259 2 0.0 11.606944828467888 29.46995839394144 16.980397694966825 0 0 0
3650 259 3 0.5 10.184741010404547 31.472624193165437 15.892877186050557 0 0 0
3651 259 12 0.0 13.414956362968915 29.206543148069787 19.00325755931897 0 0 0
3652 259 4 0.0 13.405655337540503 28.179761147946614 18.346043755186155 0 0 0
3654 259 4 0.0 9.45621753431642 32.379412059598124 15.527381183423298 0 0 0
3655 259 7 0.0 14.109490634547328 29.288413079808507 20.163662582205706 0 0 0
3656 259 9 0.0 13.961841239021746 30.18371269998416 20.51349274237428 0 0 0
3940 276 12 0.0 17.89383211552377 27.896626529614675 24.29432294149193 0 0 0
3941 276 4 0.0 18.074300748053574 29.06767720290664 24.582746747081362 0 0 0
3944 276 7 0.0 17.331182807864415 27.532660616029332 23.11947293786858 0 0 0
3945 276 9 0.0 17.374961682798833 26.561488690404648 23.084095266422302 0 0 0
6445 433 3 0.5 22.793540138296507 32.10364958062739 17.3549669117759 0 0 0
6449 433 4 0.0 23.017904677693057 31.78957585295113 18.511394921285593 0 0 0
6511 438 1 0.0 19.907478518602797 25.202840962511836 15.2977956888195 0 0 0
2086 149 6 0.0 19.110802232575203 30.392093976339996 17.319071764326967 0 0 0
6518 438 2 0.0 18.237873918530983 28.04682847231625 16.194408368892127 0 0 0
6514 438 1 0.0 20.98252037494081 25.278052752803102 16.205920330812244 0 0 0
6515 438 1 0.0 21.07938670206512 26.377098105787486 17.074434066951483 0 0 0
6516 438 1 0.0 20.085582080952094 27.373889374631467 17.075173508075817 0 0 0
3105 222 5 -0.5 29.23732638873392 31.682424120171838 31.32876899922574 0 0 0
6519 438 2 0.0 21.91644705123263 26.44287040969487 17.761164396521984 0 0 0
6520 438 3 0.5 22.029718233004157 24.209806488789607 16.26976822521414 0 0 0
6521 438 3 0.5 20.165558941551858 28.54603436772775 18.00138828094963 0 0 0
6524 438 4 0.0 22.12600236508038 23.305618848332276 15.457907864725627 0 0 0
6525 438 4 0.0 21.139960514891083 28.816071037309896 18.683328423942204 0 0 0
2765 198 2 0.0 23.135491563280613 28.472514185382536 14.824540373344593 0 0 0
6440 433 1 0.0 23.224042957363004 32.02625923892105 14.8833825659496 0 0 0
2075 149 1 0.0 16.67852539271288 30.999501370837383 16.712207358167813 0 0 0
2045 147 1 0.0 4.8607086899261915 24.165907171155737 32.436936073080226 0 0 0
4040 282 3 0.5 18.077746506405962 31.435454613809743 20.997688338694594 0 0 0
4531 311 2 0.0 26.716051893528206 32.20946424696523 26.282240906815527 0 0 0
2078 149 1 0.0 17.51199379088851 31.665588221572325 17.62545062564653 0 0 0
2800 200 6 0.0 28.769763850754714 24.592719664029154 17.576896443150126 0 0 0
6439 433 1 0.0 23.570673626196175 31.599606159557744 16.178808155163413 0 0 0
2081 149 2 0.0 17.02817819063075 30.10464891489113 16.204986414184468 0 0 0
1348 97 1 0.0 32.225225250142515 28.676664960281688 16.53126155952507 0 0 0
3962 277 9 0.0 31.058395031881105 23.2082618004139 13.773374735345495 0 0 0
1355 97 5 -0.5 31.000593659329184 29.282465218873813 16.16330024766662 0 0 0
1357 97 6 0.0 30.77094441377102 29.246981367178954 15.177234131807907 0 0 0
2793 200 2 0.0 23.69041717849148 26.13519345350541 15.189001078427722 0 0 0
1768 127 1 0.0 31.136682908400704 31.951018741597785 21.859185191559078 0 0 0
2508 180 1 0.0 -0.9245698256643116 28.966762822061952 31.640217409851065 0 0 0
1775 127 5 -0.5 31.33742323489263 31.067492012350993 20.778335369151446 0 0 0
3347 240 1 0.0 30.40717665166637 23.158099366334408 28.884563033775844 0 0 0
1777 127 6 0.0 30.500812294815457 30.65653347571572 20.382049792231154 0 0 0
2790 200 1 0.0 25.258030711099323 26.25768916952857 16.66357932324144 0 0 0
2791 200 1 0.0 26.48951052776662 25.724016928974557 17.08882475197892 0 0 0
2797 200 5 -0.5 24.64516633937511 27.330889661675275 17.357782065998162 0 0 0
2798 200 2 0.0 26.987284751517574 26.13037139432644 17.963369512617856 0 0 0
4528 311 1 0.0 29.92098483717639 32.05874235476955 27.42819453811647 0 0 0
2507 180 1 0.0 -1.792917331100168 28.10743326718665 30.95133857547402 0 0 0
6252 420 3 0.5 -1.568378627019025 24.667348696233347 31.979700516507396 0 0 0
2513 180 2 0.0 -2.7020300063764964 27.75821941679597 31.42819203119526 0 0 0
2922 209 5 -0.5 27.625799852355463 31.847546476747297 16.027866850230573 0 0 0
3149 225 6 0.0 29.43651245846036 18.382340805397902 31.286685349531666 0 0 0
2926 209 6 0.0 27.043236722266453 31.270272343010294 16.62260267577571 0 0 0
3521 252 1 0.0 26.255703286839008 27.928568366563955 20.624909062687035 0 0 0
3522 252 1 0.0 27.114821671568603 28.74409277817646 21.385264510681868 0 0 0
3523 252 1 0.0 26.588082303794053 29.49634201549502 22.45427362658027 0 0 0
3524 252 1 0.0 24.890978461793548 27.847694107167897 20.93730796652972 0 0 0