Random packing of 1 x 'MPD-L.lmps', 1 x 'TMC-L.lmps'

34 atoms
35 bonds
44 angles
75 dihedrals
0 impropers

12 atom types
17 bond types
23 angle types
42 dihedral types

0.000000 65.000000 xlo xhi
0.000000 65.000000 ylo yhi
0.000000 65.000000 zlo zhi

Masses

 1 12.0100000 # ca
 2 1.0080000 # ha
 3 12.0100000 # c
 4 16.0000000 # o
 5 14.0100000 # n
 6 1.0080000 # hn
 7 16.0000000 # oh
 8 14.0100000 # nh
 9 1.0080000 # ho
 10 12.0100000 # c
 11 14.0100000 # n
 12 12.0100000 # c


Atoms

 1 1 1 -0.19950000 39.2771968887678 46.6609510047271 42.2211098638862
 2 1 1 -0.07600000 39.3717186308223 46.9622098743014 40.8593430946552
 3 1 1 -0.19950000 39.6711404012632 45.9515233324838 39.9412149349875
 4 1 1 0.01500000 39.4820969171542 45.3490055933353 42.6647484734495
 5 1 1 0.00500000 39.7800551159638 44.3476900901705 41.7434514665706
 6 1 1 0.01500000 39.8745768580183 44.6489489597448 40.3816846973396
 7 1 2 0.13800000 39.045308933912 47.4489894261626 42.9229812358158
 8 1 2 0.13600000 39.2136528946385 47.9742820488036 40.5171075958492
 9 1 2 0.13800000 39.7436633424267 46.1913676435494 38.8813493164044
 10 1 11 -0.21550000 40.1678157536883 43.6628675338464 39.4760609500999
 11 1 8 -0.21550000 39.3895316290993 45.0576942431463 43.9919143879825
 12 1 2 0.17200000 39.9395844237789 43.3262468770155 42.0888558125877
 13 1 6 0.14300000 39.1716372895394 45.7935909134366 44.6593558816308
 14 1 6 0.14300000 40.2378893584838 43.8734457674887 38.4885658881239
 15 2 1 -0.18050000 17.5999901755846 21.1837214493845 5.00555949720773
 16 2 1 -0.03400000 17.5425192052077 19.8849828502589 4.47304176162971
 17 2 1 -0.18050000 17.550855938576 19.7129570625932 3.08818161444707
 18 2 1 -0.10450000 17.6751051094383 22.2819483149367 4.15182915424708
 19 2 1 -0.14500000 17.683099551726 22.0958100228752 2.76612044563587
 20 2 1 -0.10450000 17.6159790601599 20.8114448652617 2.2341420799853
 21 2 2 0.15350000 17.5910638004847 21.346203397977 6.07799594577202
 22 2 2 0.15350000 17.5077558617705 18.7119340294077 2.6659313682523
 23 2 2 0.13200000 17.7362690745519 22.9634133995597 2.10352148502077
 24 2 10 0.29650000 17.7328539701024 23.6553751966882 4.73839856154184
 25 2 12 0.29650000 17.6256975617598 20.5879927598137 0.761228400471972
 26 2 12 0.35200000 17.4632323775917 18.677981710189 5.3697924777356
 27 2 4 -0.36700000 17.40625908895 17.5352572868631 4.95285730685669
 28 2 4 -0.09550000 17.799722408247 24.6845927951565 4.09292218940784
 29 2 4 -0.09550000 17.6847112407755 21.4797560404947 -0.0698405719473238
 30 2 7 -0.31800000 17.4598746197797 18.9197933923858 6.65264704307635
 31 2 9 0.24200000 17.4037068137485 18.0517349812233 7.08833015311806
 32 1 6 0.0 1 2 3
 33 1 7 0.0 1 2 5
 34 1 9 0.0 1 2 7

Bonds

 1 1 1 2
 2 1 1 4
 3 3 1 7
 4 1 2 3
 5 3 2 8
 6 1 3 6
 7 3 3 9
 8 1 4 5
 9 8 4 11
 10 1 5 6
 11 3 5 12
 12 6 6 10
 13 7 10 14
 14 7 11 13
 15 1 15 16
 16 1 15 18
 17 3 15 21
 18 1 16 17
 19 16 16 26
 20 1 17 20
 21 3 17 22
 22 1 18 19
 23 2 18 24
 24 1 19 20
 25 3 19 23
 26 16 20 25
 27 4 24 28
 28 4 25 29
 29 17 26 27
 30 14 26 30
 31 15 30 31
 32 0 11 32
 33 0 25 33
 34 0 33 34
 35 0 10 24


Angles

 1 1 1 2 3
 2 2 1 2 8
 3 1 1 4 5
 4 9 1 4 11
 5 1 2 1 4
 6 2 2 1 7
 7 1 2 3 6
 8 2 2 3 9
 9 2 3 2 8
 10 1 3 6 5
 11 9 3 6 10
 12 2 4 1 7
 13 1 4 5 6
 14 2 4 5 12
 15 10 4 11 13
 16 9 5 4 11
 17 9 5 6 10
 18 2 6 3 9
 19 2 6 5 12
 20 10 6 10 14
 21 1 15 16 17
 22 23 15 16 26
 23 1 15 18 19
 24 4 15 18 24
 25 1 16 15 18
 26 2 16 15 21
 27 1 16 17 20
 28 2 16 17 22
 29 22 16 26 27
 30 19 16 26 30
 31 23 17 16 26
 32 1 17 20 19
 33 4 17 20 25
 34 2 18 15 21
 35 1 18 19 20
 36 2 18 19 23
 37 3 18 24 28
 38 4 19 18 24
 39 4 19 20 25
 40 2 20 17 22
 41 2 20 19 23
 42 3 20 25 29
 43 20 26 30 31
 44 21 27 26 30

Dihedrals

 1 1 1 2 3 6
 2 11 1 2 3 9
 3 2 1 3 2 8
 4 1 1 4 5 6
 5 11 1 4 5 12
 6 37 1 4 11 13
 7 25 1 5 4 11
 8 1 2 1 4 5
 9 14 2 1 4 11
 10 1 2 3 6 5
 11 14 2 3 6 10
 12 2 2 6 3 9
 13 25 3 5 6 10
 14 1 3 6 5 4
 15 11 3 6 5 12
 16 37 3 6 10 14
 17 1 4 1 2 3
 18 11 4 1 2 8
 19 14 4 5 6 10
 20 2 4 6 5 12
 21 37 5 4 11 13
 22 11 5 6 3 9
 23 37 5 6 10 14
 24 11 6 3 2 8
 25 14 6 5 4 11
 26 11 7 1 2 3
 27 19 7 1 2 8
 28 2 7 1 4 2
 29 11 7 1 4 5
 30 16 7 1 4 11
 31 19 8 2 3 9
 32 16 9 3 6 10
 33 16 10 6 5 12
 34 16 11 4 5 12
 35 1 15 16 17 20
 36 11 15 16 17 22
 37 39 15 16 26 27
 38 38 15 16 26 30
 39 42 15 17 16 26
 40 1 15 18 19 20
 41 11 15 18 19 23
 42 3 15 18 24 28
 43 1 16 15 18 19
 44 9 16 15 18 24
 45 1 16 17 20 19
 46 9 16 17 20 25
 47 2 16 20 17 22
 48 35 16 26 30 31
 49 21 16 27 26 30
 50 39 17 16 26 27
 51 38 17 16 26 30
 52 1 17 20 19 18
 53 11 17 20 19 23
 54 3 17 20 25 29
 55 1 18 15 16 17
 56 40 18 15 16 26
 57 9 18 19 20 25
 58 2 18 20 19 23
 59 3 19 18 24 28
 60 11 19 20 17 22
 61 3 19 20 25 29
 62 40 20 17 16 26
 63 9 20 19 18 24
 64 11 21 15 16 17
 65 41 21 15 16 26
 66 2 21 15 18 16
 67 11 21 15 18 19
 68 12 21 15 18 24
 69 41 22 17 16 26
 70 12 22 17 20 25
 71 12 23 19 18 24
 72 12 23 19 20 25
 73 22 24 15 18 19
 74 22 25 17 20 19
 75 36 27 26 30 31

