Untitled

17 atoms
17 bonds
24 angles
41 dihedrals
0 impropers

12 atom types
17 bond types
23 angle types
42 dihedral types
0 improper types

-10.3400000   5.8820000 xlo xhi
 -1.0600000  14.5370000 ylo yhi
 -0.1300000  13.5220000 zlo zhi
  0.0000000   0.0000000   0.0000000 xy xz yz

Masses # id, mass [g/mol]

 1  12.0100000 # CA (carbon aromatic)
 2   1.0080000 # HA (hydrogen aromatic)
 3  12.0100000 # C  (carbon in carboxyl)
 4  16.0000000 # O  (oxygen)
 5  14.0100000 # N (nitrogen with 1 hydrogen)
 6   1.0080000 # HN (hydrogen on nitrogen)
 7  16.0000000 # OH (protonated carboxyl oxygen)
 8  14.0100000 # NH (nitrogen with 2 hydrogens)
 9   1.0080000 # HO (hydrogen on oxygen)
 10 12.0100000 # LC (crosslinked carbon)
 11 14.0100000 # LN (crosslinked nitrogen)
 12 12.0100000 # CT (terminated carbon on carboxyl group)


Atoms

     1      1      1 -0.18050000   -8.7000000    2.5300000   -0.0500000
     2      1      1 -0.03400000   -7.4400000    3.1500000   -0.0100000
     3      1      1 -0.18050000   -6.2900000    2.3600000    0.0200000
     4      1      1 -0.10450000   -8.7900000    1.1400000   -0.0700000
     5      1      1 -0.14500000   -7.6300000    0.3600000   -0.0400000
     6      1      1 -0.10450000   -6.3800000    0.9700000    0.0100000
     7      1      2 0.15350000   -9.6100000    3.1200000   -0.0700000
     8      1      2 0.15350000   -5.3100000    2.8300000    0.0500000
     9      1      2 0.13200000   -7.7100000   -0.7300000   -0.0500000
    10      1      3 0.29650000  -10.1400000    0.5000000   -0.1100000
    11      1      3 0.29650000   -5.1300000    0.1600000    0.0400000
    12      1      12 0.35200000   -7.3100000    4.6500000    0.0100000
    13      1      4 -0.36700000   -6.2400000    5.2300000    0.0500000
    14      1      4 -0.09550000  -10.3400000   -0.7000000   -0.1300000
    15      1      4 -0.09550000   -5.1000000   -1.0600000    0.0300000
    16      1      7 -0.31800000   -8.4300000    5.3200000   -0.0200000
    17      1      9 0.24200000   -8.1800000    6.2600000   -0.0000000


Bonds

1 1 1 2
2 1 1 4
3 3 1 7
4 1 2 3
5 16 2 12
6 1 3 6
7 3 3 8
8 1 4 5
9 2 4 10
10 1 5 6
11 3 5 9
12 2 6 11
13 4 10 14
14 4 11 15
15 17 12 13
16 14 12 16
17 15 16 17

Angles

1 1 1 2 3
2 23 1 2 12
3 1 1 4 5
4 4 1 4 10
5 1 2 1 4
6 2 2 1 7
7 1 2 3 6
8 2 2 3 8
9 22 2 12 13
10 19 2 12 16
11 23 3 2 12
12 1 3 6 5
13 4 3 6 11
14 2 4 1 7
15 1 4 5 6
16 2 4 5 9
17 3 4 10 14
18 4 5 4 10
19 4 5 6 11
20 2 6 3 8
21 2 6 5 9
22 3 6 11 15
23 20 12 16 17
24 21 13 12 16

Dihedrals

1 1 1 2 3 6
2 11 1 2 3 8
3 39 1 2 12 13
4 38 1 2 12 16
5 42 1 3 2 12
6 1 1 4 5 6
7 11 1 4 5 9
8 3 1 4 10 14
9 1 2 1 4 5
10 9 2 1 4 10
11 1 2 3 6 5
12 9 2 3 6 11
13 2 2 6 3 8
14 35 2 12 16 17
15 21 2 13 12 16
16 39 3 2 12 13
17 38 3 2 12 16
18 1 3 6 5 4
19 11 3 6 5 9
20 3 3 6 11 15
21 1 4 1 2 3
22 40 4 1 2 12
23 9 4 5 6 11
24 2 4 6 5 9
25 3 5 4 10 14
26 11 5 6 3 8
27 3 5 6 11 15
28 40 6 3 2 12
29 9 6 5 4 10
30 11 7 1 2 3
31 41 7 1 2 12
32 2 7 1 4 2
33 11 7 1 4 5
34 12 7 1 4 10
35 41 8 3 2 12
36 12 8 3 6 11
37 12 9 5 4 10
38 12 9 5 6 11
39 22 10 1 4 5
40 22 11 3 6 5
41 36 13 12 16 17
