Untitled

15 atoms
15 bonds
21 angles
36 dihedrals
0 impropers

12 atom types
17 bond types
23 angle types
42 dihedral types
0 improper types

-10.3800000   5.8530000 xlo xhi
 -1.0900000  14.4760000 ylo yhi
 -0.1300000  13.4910000 zlo zhi
  0.0000000   0.0000000   0.0000000 xy xz yz

Masses # id, mass [g/mol]

 1  12.0100000 # CA (carbon aromatic)
 2   1.0080000 # HA (hydrogen aromatic)
 3  12.0100000 # C  (carbon in carboxyl)
 4  16.0000000 # O  (oxygen)
 5  14.0100000 # N (nitrogen with 1 hydrogen)
 6   1.0080000 # HN (hydrogen on nitrogen)
 7  16.0000000 # OH (protonated carboxyl oxygen)
 8  14.0100000 # NH (nitrogen with 2 hydrogens)
 9   1.0080000 # HO (hydrogen on oxygen)
 10 12.0100000 # LC (crosslinked carbon)
 11 14.0100000 # LN (crosslinked nitrogen)
 12 12.0100000 # CT (terminated carbon on carboxyl group)


Atoms

     1      1      1 -0.26200000   -8.6700000    2.5600000   -0.0500000
     2      1      1 -0.07300000   -7.4100000    3.1600000   -0.0100000
     3      1      1 -0.26200000   -6.2700000    2.3500000    0.0200000
     4      1      1 -0.07300000   -8.8000000    1.1700000   -0.0600000
     5      1      1 -0.26200000   -7.6500000    0.3700000   -0.0400000
     6      1      1 -0.07300000   -6.3800000    0.9600000    0.0100000
     7      1      2 0.06300000   -9.5600000    3.1900000   -0.0700000
     8      1      2 0.06300000   -5.2800000    2.8100000    0.0500000
     9      1      2 0.06300000   -7.7400000   -0.7100000   -0.0500000
    10      1      3 -0.17400000  -10.1600000    0.5600000   -0.1100000
    11      1      3 -0.17400000   -5.1500000    0.1300000    0.0400000
    12      1      3 -0.17400000   -7.3000000    4.6400000    0.0100000
    13      1      4 -0.55300000   -6.2500000    5.2600000    0.0500000
    14      1      4 -0.55300000  -10.3800000   -0.6300000   -0.1300000
    15      1      4 -0.55300000   -5.1400000   -1.0900000    0.0300000


Bonds

1 1 1 2
2 1 1 4
3 3 1 7
4 1 2 3
5 2 2 12
6 1 3 6
7 3 3 8
8 1 4 5
9 2 4 10
10 1 5 6
11 3 5 9
12 2 6 11
13 4 10 14
14 4 11 15
15 4 12 13

Angles

1 1 1 2 3
2 4 1 2 12
3 1 1 4 5
4 4 1 4 10
5 1 2 1 4
6 2 2 1 7
7 1 2 3 6
8 2 2 3 8
9 3 2 12 13
10 4 3 2 12
11 1 3 6 5
12 4 3 6 11
13 2 4 1 7
14 1 4 5 6
15 2 4 5 9
16 3 4 10 14
17 4 5 4 10
18 4 5 6 11
19 2 6 3 8
20 2 6 5 9
21 3 6 11 15

Dihedrals

1 1 1 2 3 6
2 11 1 2 3 8
3 3 1 2 12 13
4 1 1 4 5 6
5 11 1 4 5 9
6 3 1 4 10 14
7 1 2 1 4 5
8 9 2 1 4 10
9 1 2 3 6 5
10 9 2 3 6 11
11 2 2 6 3 8
12 3 3 2 12 13
13 1 3 6 5 4
14 11 3 6 5 9
15 3 3 6 11 15
16 1 4 1 2 3
17 9 4 1 2 12
18 9 4 5 6 11
19 2 4 6 5 9
20 3 5 4 10 14
21 11 5 6 3 8
22 3 5 6 11 15
23 9 6 3 2 12
24 9 6 5 4 10
25 11 7 1 2 3
26 12 7 1 2 12
27 2 7 1 4 2
28 11 7 1 4 5
29 12 7 1 4 10
30 12 8 3 2 12
31 12 8 3 6 11
32 12 9 5 4 10
33 12 9 5 6 11
34 22 10 1 4 5
35 22 11 3 6 5
36 22 12 1 2 3
