LAMMPS data file via write_data, version 29 Oct 2020, timestep = 1714

6690 atoms
7184 bonds
11462 angles
20128 dihedrals
0 impropers

12 atom types
17 bond types
23 angle types
42 dihedral types

11.074817 53.925183 xlo xhi
11.074817 53.925183 ylo yhi
11.074817 53.925183 zlo zhi

Masses

 1 12.01
 2 1.008
 3 12.01
 4 16
 5 14.01
 6 1.008
 7 16
 8 14.01
 9 1.008
 10 12.01
 11 14.01
 12 12.01

Pair Coeffs

 1 0.086 3.39967
 2 0.015 2.59964
 3 0.086 3.39967
 4 0.21 2.95992
 5 0.17 3.25
 6 0.0157 1.06908
 7 0.2104 3.06647
 8 0.17 3.25
 9 0 0
 10 0.086 3.39967
 11 0.17 3.25
 12 0.086 3.39967

Atoms

 1 1 1 0.0 35.43477021160166 50.9855422847569 35.79394804884694
 2 1 1 0.0 36.28604772174154 52.0851946336704 35.62481718204856
 3 1 1 0.0 35.76798203921213 53.3855638954095 35.66483671534318
 4 1 1 0.0 34.06688749135671 51.1718479104334 36.060057394673706
 5 1 1 0.0 33.5538823398667 52.4824906317646 36.13026047617955
 6 1 1 0.0 34.39544450276109 53.5873603072516 35.89665488340902
 7 1 2 0.0 35.843612627543614 49.9826493748693 35.72266624637035
 8 1 2 0.0 37.344779139573625 51.92793738294 35.45923088819997
 9 1 2 0.0 36.43541222461461 54.2315109497384 35.52522595327539
 10 1 11 0.0 33.86565882970726 54.899834297659 35.95032245524719
 11 1 11 0.0 33.273390652955385 50.0011171702104 36.203330142547514
 12 1 2 0.0 32.50462628237578 52.6506737982865 36.34019811981946
 13 1 6 0.0 33.7222634630089 49.1726323846085 35.83420567803153
 14 1 6 0.0 33.26966476720323 55.0951784708765 36.745354129570515
 15 1 1 0.0 25.847758608818122 20.995610286867354 34.97679703636069
 16 1 1 0.0 25.92125196564976 21.254587010131758 33.59784165686127
 17 1 1 0.0 27.030196476738745 21.93205997369155 33.06173729499184
 18 1 1 0.0 26.876876883771597 21.430022661083754 35.82929291403094
 19 1 1 0.0 27.934168012608414 22.192206540734762 35.297068704394995
 20 1 1 0.0 28.049799027923576 22.399061280556285 33.91413681904501
 21 1 2 0.0 25.018279978346417 20.415869942648662 35.37261158550799
 22 1 2 0.0 25.138464982980615 20.891052835804604 32.93832842622924
 23 1 2 0.0 27.1057511251075 22.053907582763767 31.98570913745603
 24 1 11 0.0 29.269545476123703 22.947366636329342 33.43409666793839
 25 1 11 0.0 26.88827108526349 21.015506774839903 37.19042990133218
 26 1 2 0.0 28.72824094617067 22.544574968837477 35.948382423410486
 27 1 6 0.0 26.011098749598606 21.12473513124479 37.68502741487942
 28 1 6 0.0 30.06938826827549 22.78223132936551 34.03306873239437
 29 1 1 0.0 2.34663956949312 25.374549460801546 38.27697738220916
 30 1 1 0.0 2.17315130745243 24.658637146672362 37.0807865886319
 31 1 1 0.0 1.12024962844989 23.739584190458046 36.9481047214674
 32 1 1 0.0 1.46957886667609 25.165517436356396 39.36262562002749
 33 1 1 0.0 0.429211893943879 24.22926788662386 39.22203199743099
 34 1 1 0.0 0.234647183877136 23.524801780367437 38.02142394857956
 35 1 2 0.0 3.14920383378698 26.10066523433428 38.32804883647209
 36 1 2 0.0 2.84319339851034 24.835259808241222 36.244184727197116
 37 1 2 0.0 0.970991026333998 23.243204669933288 35.99443556280366
 38 1 11 0.0 -0.955660579171891 22.7605956874062 37.88490474745042
 39 1 11 0.0 1.53052967054489 25.88755906697024 40.591202881511045
 40 1 2 0.0 -0.266111995785749 24.079440009979514 40.042640274405954
 41 1 6 0.0 0.717935090480637 25.75602191045047 41.181060186360064
 42 1 6 0.0 -1.74349954392813 23.129478403500734 38.40297686057501
 43 1 1 0.0 10.4882987538672 21.5073045015276 -20.9367913884214
 44 1 1 0.0 9.55857242794268 22.2249613383716 -20.1668104264213
 45 1 1 0.0 8.66047877723597 21.5454388376228 -19.3309842808673
 46 1 1 0.0 10.5262817318125 20.1037573082486 -20.8706122905097
 47 1 1 0.0 9.62292484626279 19.4308348223723 -20.0290756174729
 48 1 1 0.0 8.67300193295679 20.1422445581435 -19.2724645727084
 49 1 2 0.0 11.189986318407355 22.042727462916 -21.5707337120022
 50 1 2 0.0 9.53726641979132 23.3088641788334 -20.2082474597431
 51 1 2 0.0 7.94441779068019 22.1097023299522 -18.7420229823495
 52 1 11 0.0 7.72329873658467 19.4819758596595 -18.4476419371535
 53 1 11 0.0 11.520154922284773 19.403780919169 -21.6054692941226
 54 1 2 0.0 9.66868632253146 18.353986113683 -19.9560457612226
 55 1 6 0.0 12.380214799495473 19.9188596188708 -21.7483476156162
 56 1 6 0.0 7.39839641260488 20.0191316011376 -17.6532379175348
 57 1 1 0.0 32.22560332395082 23.994780186455337 15.766805176372676
 58 1 1 0.0 32.67955584001704 24.4145045817483 14.50555550645428
 59 1 1 0.0 33.123330015301526 25.734396907100084 14.317099064390149
 60 1 1 0.0 32.23384849713002 24.895742450432348 16.84859863293614
 61 1 1 0.0 32.65478693772595 26.220442915072766 16.643642075702562
 62 1 1 0.0 33.10270839891577 26.654671478423687 15.379538028237453
 63 1 2 0.0 31.888877803642117 22.97108006068629 15.900269849255725
 64 1 2 0.0 32.69703330211813 23.71447958271151 13.675234346535868
 65 1 2 0.0 33.497879693100025 26.039912366182477 13.346341575497883
 66 1 11 0.0 33.62793118308771 27.962615771952233 15.16568888953253
 67 1 11 0.0 31.86551650676157 24.520633314420998 18.168126375165432
 68 1 2 0.0 32.6830033721973 26.887434067293313 17.49873314875853
 69 1 6 0.0 31.540451830999096 25.287080177878806 18.744692988280608
 70 1 6 0.0 34.3115490579559 28.029874822017184 14.421179789627228
 71 1 1 0.0 54.3029061688547 44.2316049806569 22.268314701148444
 72 1 1 0.0 52.9454356152768 44.3945136416903 21.944378486274758
 73 1 1 0.0 51.9507588461954 43.8062021663845 22.74292716028745
 74 1 1 0.0 54.665992161944 43.3972447528196 23.33593393684781
 75 1 1 0.0 53.6716113524644 42.7439135660504 24.078236043616023
 76 1 1 0.0 52.3099706262011 43.0110327315035 23.844706766070235
 77 1 2 0.0 55.0656479944138 44.7543342948692 21.69884802961868
 78 1 2 0.0 52.6605201221203 45.0038877084527 21.09356270090668
 79 1 2 0.0 50.9033692827867 43.9824960242875 22.514250271065254
 80 1 11 0.0 51.2940507344753 42.4721221545942 24.68170539789774
 81 1 11 0.0 56.0048592045214 43.3063336044447 23.779950808169435
 82 1 2 0.0 53.9710323334568 42.0907182103177 24.89169298989117
 83 1 6 0.0 56.3123407515633 44.0839865634643 24.35132652129575
 84 1 6 0.0 50.4788292559994 42.1372634380908 24.18236767040109
 85 1 1 0.0 55.8366234914164 47.13443790051661 -1.32488674798039
 86 1 1 0.0 57.2042930654036 47.43966849306784 -1.3823087895283
 87 1 1 0.0 57.9996084520393 46.90798981135688 -2.40858420138488
 88 1 1 0.0 55.2697110403478 46.256153834200624 -2.2681522209366
 89 1 1 0.0 56.0716818710185 45.73601489325347 -3.30162082748321
 90 1 1 0.0 57.4286481269339 46.09007008313889 -3.4031915565059
 91 1 2 0.0 55.2249272862478 47.569190334931456 -0.539231696138813
 92 1 2 0.0 57.6468031172916 48.09356297366072 -0.636191805906876
 93 1 2 0.0 59.0556578664328 47.149448637915825 -2.4346730589581
 94 1 11 0.0 58.1848694764974 45.62770895383372 -4.5169105333016
 95 1 11 0.0 53.88765179544173 45.92819351043944 -2.22628930313529
 96 1 2 0.0 55.6305592530218 45.08064455871811 -4.04846635057977
 97 1 6 0.0 53.406654580566 46.01467446284994 -3.11354986718203
 98 1 6 0.0 57.9094887977336 44.72588364191466 -4.88676694241936
 99 1 1 0.0 -1.61914673853235 29.8896992177245 35.52014478930328
 100 1 1 0.0 -1.09699238086871 28.6825186411313 36.01087474291686
 101 1 1 0.0 0.225506222202924 28.3100923499885 35.716229822378885
 102 1 1 0.0 -0.823210208859599 30.7410506232733 34.735160761829675
 103 1 1 0.0 0.510304033660759 30.3753357425797 34.46607429295296
 104 1 1 0.0 1.0360351976834 29.1641838574154 34.9499410840729
 105 1 2 0.0 -2.63900543089504 30.1718846963682 35.76583871849653
 106 1 2 0.0 -1.71887549049382 28.0432668802664 36.6277688080018
 107 1 2 0.0 0.623465955756728 27.3750779387434 36.10080914107222
 108 1 11 0.0 2.38310407353581 28.8258918864588 34.665126288271274
 109 1 11 0.0 -1.36582438897729 31.9939066650336 34.33654991384504
 110 1 2 0.0 1.15416014982496 31.033613792694 33.8930485987144
 111 1 6 0.0 -2.00385144334823 32.3932289119574 35.01453173613555
 112 1 6 0.0 2.53008087827519 27.9876366756656 34.11566384510606
 113 1 1 0.0 -6.0757806511228 25.794303056285177 6.48078965723933
 114 1 1 0.0 -6.87447748143768 25.65297639596576 5.33706890933061
 115 1 1 0.0 -6.27414086368416 25.395902237341133 4.09609088065867
 116 1 1 0.0 -4.67845307923406 25.679234588265725 6.39008560916998
 117 1 1 0.0 -4.07484399828436 25.500353761676354 5.13518584060585
 118 1 1 0.0 -4.87519157204847 25.294571369589377 3.99752284021374
 119 1 2 0.0 -6.54050633789669 25.94313480295314 7.44757301487937
 120 1 2 0.0 -7.95539065437707 25.71427136010895 5.41744988837462
 121 1 2 0.0 -6.89791472896943 25.235019943106646 3.22141398548582
 122 1 11 0.0 -4.30447188354351 24.848499624502125 2.78179305528287
 123 1 11 0.0 -3.8909292306364 25.59881196397085 7.56428315905259
 124 1 2 0.0 -2.99513313940658 25.401746056586298 5.06568992646509
 125 1 6 0.0 -3.04431969643036 26.15459890257558 7.57617030634766
 126 1 6 0.0 -4.32183462700806 25.52378081139574 2.02730300318046
 127 1 1 0.0 17.919301091492155 24.026428926795695 13.760867618233657
 128 1 1 0.0 19.000449699022496 24.819227272640827 13.35127216313285
 129 1 1 0.0 20.27807561993418 24.58602579811141 13.881227282031622
 130 1 1 0.0 18.11656803707855 22.987925406894234 14.685859104532415
 131 1 1 0.0 19.401816243368593 22.75470371016686 15.215026319163794
 132 1 1 0.0 20.486682116667474 23.574171420361445 14.835347952038218
 133 1 2 0.0 16.93261147556646 24.205270255225525 13.344517141604266
 134 1 2 0.0 18.84939318850506 25.611190361470566 12.623248304614764
 135 1 2 0.0 21.10821453418907 25.19844843749243 13.550318487275272
 136 1 11 0.0 21.799172032848524 23.41084716957904 15.36454620821546
 137 1 11 0.0 17.01814735468433 22.158505885504265 15.025801071691557
 138 1 2 0.0 19.552494797628686 21.93259945378706 15.908184153273428
 139 1 6 0.0 16.664932605675975 21.58049739470149 14.272700338819277
 140 1 6 0.0 22.54260363535326 23.75295250409716 14.767668470271191
 141 1 1 0.0 6.75052713754473 40.160251048398756 7.60086725585688
 142 1 1 0.0 5.55026565356761 39.69679118155742 7.03211189359207
 143 1 1 0.0 4.59937297068034 39.032076794581336 7.82662259493243
 144 1 1 0.0 7.01168370132714 39.934720042709316 8.96622333281725
 145 1 1 0.0 6.06452029099691 39.25446485695156 9.74528259721589
 146 1 1 0.0 4.85309098206782 38.82018975604019 9.193338809693
 147 1 2 0.0 7.46159635904393 40.69508878991086 6.98101172813283
 148 1 2 0.0 5.35226772753428 39.86261072421875 5.97712644665625
 149 1 2 0.0 3.67280096761565 38.68330041002667 7.38345302454535
 150 1 11 0.0 3.9241262550161 38.17518606998694 10.0461677236032
 151 1 11 0.0 8.18468902695856 40.36938662664853 9.63360808602108
 152 1 2 0.0 6.26683921765187 39.071318396588765 10.7955150624854
 153 1 6 0.0 8.07595316770433 40.41507156351313 10.6389009159426
 154 1 6 0.0 4.32105371129249 37.49628869939921 10.6844802367913
 155 1 1 0.0 8.06853596835533 11.58739696324412 32.23756499477997
 156 1 1 0.0 9.28317004380672 11.0358466625871 31.8115305518562
 157 1 1 0.0 10.3973458267706 11.0420834608589 32.66390552924224
 158 1 1 0.0 7.94982875623117 12.130404105857886 33.527353336885604
 159 1 1 0.0 9.07510507249257 12.136788561943776 34.381552533970726
 160 1 1 0.0 10.2983314969504 11.579956947540007 33.95696127519542
 161 1 2 0.0 7.20663377929827 11.553818437575487 31.576963062026596
 162 1 2 0.0 9.35829423991857 10.6075254859219 30.817760507484266
 163 1 2 0.0 11.339165908418009 10.6226780207473 32.321983556602866
 164 1 11 0.0 11.453544343041715 11.557013914926722 34.78559579022926
 165 1 11 0.0 6.64931046554998 12.513091728108389 33.954852307954646
 166 1 2 0.0 8.99785883791729 12.53419664492449 35.38656449795033
 167 1 6 0.0 5.89741876275246 12.082895564206883 33.43042292772911
 168 1 6 0.0 12.33163783430874 11.63939040374065 34.28852310764573
 169 1 1 0.0 -3.40685958139487 18.971799127381995 11.36599429372505
 170 1 1 0.0 -2.80973620437756 18.677395160222215 10.1284927997217
 171 1 1 0.0 -1.62751459890074 17.919254383992673 10.0743995465767
 172 1 1 0.0 -2.83159678693678 18.49782469675884 12.557722568720472
 173 1 1 0.0 -1.69688671864031 17.666434540171267 12.489131083026667
 174 1 1 0.0 -1.06649731069776 17.411875725116992 11.259174515422014
 175 1 2 0.0 -4.29073626569438 19.603202995031367 11.400168146563407
 176 1 2 0.0 -3.25167475390359 19.06001167810588 9.21432767839894
 177 1 2 0.0 -1.14352905433321 17.738918444287414 9.11943712475592
 178 1 11 0.0 0.166381826761942 16.710788425844918 11.259091632654307
 179 1 11 0.0 -3.35123116111017 18.932561228235823 13.810180725983015
 180 1 2 0.0 -1.24495356531223 17.297502022135248 13.40395413182773
 181 1 6 0.0 -4.35787717556968 18.8712698469731 13.90311334054146
 182 1 6 0.0 0.171952468931345 15.861234861134946 11.810608051374414
 183 1 1 0.0 45.8814517882841 43.9086820530502 40.536269726998945
 184 1 1 0.0 46.3737638414984 45.0895237763877 41.12039281987903
 185 1 1 0.0 47.5054583795309 45.0453402711053 41.95397003713902
 186 1 1 0.0 46.503400376166 42.679119589843 40.80417761287783
 187 1 1 0.0 47.6156648373533 42.639172582654 41.65723594389427
 188 1 1 0.0 48.139036839184 43.8166950233267 42.20699522109221
 189 1 2 0.0 45.0247449032643 43.9451048344308 39.87411000954232
 190 1 2 0.0 45.8893808030308 46.0395720459294 40.91381373507928
 191 1 2 0.0 47.8969246990413 45.9623615075338 42.38021829067399
 192 1 11 0.0 49.3563574341236 43.7318415032867 42.92138909625544
 193 1 11 0.0 46.1193176543263 41.491637343675 40.13570169941813
 194 1 2 0.0 48.1187421410677 41.6964587389308 41.84376270677073
 195 1 6 0.0 46.4684463329913 41.4193374201202 39.18807418574187
 196 1 6 0.0 50.1892427047952 43.9656671818163 42.394481540716335
 197 1 1 0.0 26.588896393517153 54.2243334661495 42.04429419037424
 198 1 1 0.0 26.645857825050413 55.4048398864091 42.79691312236163
 199 1 1 0.0 26.938018335381052 55.3454360250667 44.166824566663614
 200 1 1 0.0 26.861330946965946 52.9855865169446 42.651222680941345
 201 1 1 0.0 27.127118873138283 52.9260448936578 44.03618214139099
 202 1 1 0.0 27.150582147083178 54.1126741661515 44.806759754302675
 203 1 2 0.0 26.363495456777443 54.2761619364624 40.98303723473195
 204 1 2 0.0 26.46878916636873 56.3642649258934 42.31955298526597
 205 1 2 0.0 26.998792061292352 56.2658593955633 44.73848344711516
 206 1 11 0.0 27.45246420727908 54.1575658349548 46.19946975325006
 207 1 11 0.0 26.84048761922671 51.8168536266165 41.8464494556597
 208 1 2 0.0 27.334325796992964 51.9629229729642 44.49110291798938
 209 1 6 0.0 25.903382534166788 51.4833677454609 41.6552644114067
 210 1 6 0.0 27.802209790798678 55.0533514977971 46.51772973537548
 211 1 1 0.0 35.0940097398407 35.044070272695954 19.885484559478
 212 1 1 0.0 35.1646244626101 35.83384224910154 21.0413816368852
 213 1 1 0.0 35.7534799607838 35.32858861910463 22.2105287072753
 214 1 1 0.0 35.6204744150445 33.7395113130969 19.8908459867878
 215 1 1 0.0 36.22078625175 33.24157572948245 21.0604653089414
 216 1 1 0.0 36.3042883023628 34.028846023444395 22.2256150755947
 217 1 2 0.0 34.6162387219613 35.443199525823815 18.9950488660965
 218 1 2 0.0 34.7590799300477 36.83972503849739 21.0316326459961
 219 1 2 0.0 35.7692439515461 35.963431873112135 23.0882731795656
 220 1 11 0.0 36.9543736847431 33.45882483549484 23.3599241832542
 221 1 11 0.0 35.5160707029154 32.90913415822006 18.7430880525638
 222 1 2 0.0 36.632303807645 32.2363190770035 21.0601734204161
 223 1 6 0.0 35.1894092082311 31.96463825122267 18.9072885878188
 224 1 6 0.0 37.150509167685 32.46993705876227 23.2649352204497
 225 1 1 0.0 24.162287621269623 37.95935848773804 -3.8785591637674
 226 1 1 0.0 23.578770831740737 38.43242522226587 -5.06463927736847
 227 1 1 0.0 23.0016909410008 37.53087552246881 -5.97442712287464
 228 1 1 0.0 24.17027912032077 36.58277072396899 -3.5982316035571
 229 1 1 0.0 23.61539338248247 35.68033660860769 -4.52479744193657
 230 1 1 0.0 23.023569894092 36.149350925906205 -5.71259432962708
 231 1 2 0.0 24.595108534974056 38.66164815039582 -3.17233869318526
 232 1 2 0.0 23.559472164636748 39.49827222862218 -5.27033765273333
 233 1 2 0.0 22.5217609238246 37.90799981282721 -6.8734710150322
 234 1 11 0.0 22.3172983891098 35.266389005989815 -6.5698859411147
 235 1 11 0.0 24.761586188087 36.115336572259885 -2.3970555706116
 236 1 2 0.0 23.61634535153351 34.61824281892048 -4.30374982062674
 237 1 6 0.0 25.688562370452562 36.47116540456719 -2.19845927854283
 238 1 6 0.0 21.3585029360121 35.536424520473105 -6.75413535797423
 239 1 1 0.0 34.131088164096255 49.5800632954869 44.42780833738538
 240 1 1 0.0 33.47194645694378 50.140022611387 45.53249281734775
 241 1 1 0.0 33.63889096690234 49.5768007312257 46.80658412123268
 242 1 1 0.0 34.9493196220359 48.4474281447103 44.58323790818379
 243 1 1 0.0 35.11398006517546 47.8844632294098 45.86639254937888
 244 1 1 0.0 34.46449898713493 48.4500251619019 46.97833818138639
 245 1 2 0.0 34.01065491981277 50.0318571447581 43.44844448932732
 246 1 2 0.0 32.84080395779259 51.0143659212797 45.40213940528212
 247 1 2 0.0 33.138868427704026 50.0249073912906 47.66107875712906
 248 1 11 0.0 34.67136550751398 47.9143982844557 48.276693282690395
 249 1 11 0.0 35.6205041363654 47.9471485945742 43.434577481679085
 250 1 2 0.0 35.761380205538686 47.0255195540337 46.01309198900971
 251 1 6 0.0 35.793227410892634 48.6366269222409 42.71353917444733
 252 1 6 0.0 35.598691266036006 48.0441055109065 48.663403612009404
 253 1 1 0.0 62.4438358792012 53.1052422919441 28.7420783207273
 254 1 1 0.0 63.2917961430619 52.1349745646585 29.296379423081643
 255 1 1 0.0 62.7618761290688 51.1242185787884 30.112024981222632
 256 1 1 0.0 61.0621783803914 53.0783824599086 29.003178705061256
 257 1 1 0.0 60.5341251059945 52.0551560598345 29.814874738229353
 258 1 1 0.0 61.381068442996 51.0821643332494 30.372096995574086
 259 1 2 0.0 62.8663911832125 53.9000144446397 28.134162027561445
 260 1 2 0.0 64.3598712684134 52.1737229455721 29.10337097759113
 261 1 2 0.0 63.4284713569131 50.3956117535148 30.55763042993054
 262 1 11 0.0 60.8320696334301 50.1242442157828 31.259293258828038
 263 1 11 0.0 60.2806999121057 54.1664491267656 28.53241127866215
 264 1 2 0.0 59.4800008854974 52.0388610857502 30.071954570182413
 265 1 6 0.0 60.8205650115211 54.9963183067241 28.321352402202756
 266 1 6 0.0 60.176092431832 49.4686445786587 30.85189018402592
 267 1 1 0.0 23.418838810125077 26.625305483323444 13.9433202485328
 268 1 1 0.0 22.38277868834601 27.57275245957232 13.8893454659606
 269 1 1 0.0 22.102175949680856 28.239174668730737 12.6854414845747
 270 1 1 0.0 24.16990017338932 26.339231329701942 12.7905362733517
 271 1 1 0.0 23.901460194468907 27.022247627740263 11.5917717282592
 272 1 1 0.0 22.877806326618174 27.987285677868456 11.5396230281465
 273 1 2 0.0 23.628632994722555 26.104969087853554 14.8731881418677
 274 1 2 0.0 21.79337215510123 27.785526627099756 14.7762841405277
 275 1 2 0.0 21.304604887691912 28.975708566918065 12.6518691528664
 276 1 11 0.0 22.636572059123182 28.7296552304216 10.3544305291691
 277 1 5 0 25.195497967296962 25.36866152317738 12.8353920700177
 278 1 2 0.0 24.49372036861761 26.809179319006706 10.7055044506381
 279 1 6 0.0 25.680678960726517 25.194356617108383 11.9634125592985
 280 1 6 0.0 21.665059461271586 28.82906341535918 10.0859029131247
 281 1 1 0.0 16.795473837851073 12.7267411538796 16.61262431514257
 282 1 1 0.0 17.313868290763992 11.4997144685279 16.177691937008174
 283 1 1 0.0 16.884469026689995 53.15522688683645 16.772848172132697
 284 1 1 0.0 15.842623047217561 12.770587634019 17.64408725111495
 285 1 1 0.0 15.429169030323651 11.5679739330247 18.25562769958454
 286 1 1 0.0 15.953650671458568 53.17953691565114 17.832145521732265
 287 1 2 0.0 17.13038354148442 13.6461473134809 16.141224153252484
 288 1 2 0.0 18.037674481777273 11.4739169636591 15.369019953997464
 289 1 2 0.0 17.277426802627723 52.21810464724094 16.3952034548117
 290 1 11 0.0 15.500812279284766 51.985782665925534 18.467704461369557
 291 1 11 0.0 15.388546525288735 14.0472267677078 18.0744047128165
 292 1 2 0.0 14.713750993576703 11.5923358344482 19.072987944341463
 293 1 6 0.0 16.084128082852956 14.7805672833239 18.01275282552416
 294 1 6 0.0 14.590261675372329 52.056248399009796 18.905385224864496
 295 1 1 0.0 28.72718277723012 27.844081683552695 2.35801426633267
 296 1 1 0.0 28.664563016715075 28.762173674420495 1.2983881061073
 297 1 1 0.0 29.45626748049258 28.579575245290624 0.15424810229149
 298 1 1 0.0 29.57444765003746 26.718309014953668 2.28019158443339
 299 1 1 0.0 30.349715530781925 26.535002658704315 1.11668451788175
 300 1 1 0.0 30.31968972569016 27.47457117604305 0.0659991147814836
 301 1 2 0.0 28.135976010117506 28.04656168087074 3.24152034451283
 302 1 2 0.0 28.01930475140614 29.631246494746886 1.37967268489684
 303 1 2 0.0 29.43093562165507 29.314609584791437 -0.644778748202292
 304 1 11 0.0 31.232707973295042 27.364254785759584 -1.02156856739967
 305 1 11 0.0 29.766845262011618 25.803426328296492 3.36078562679928
 306 1 2 0.0 31.028961987817237 25.690737483794756 1.05615946361516
 307 1 6 0.0 30.584820163078547 25.215742992561875 3.25683570620333
 308 1 6 0.0 31.05730649839375 26.585146132937876 -1.64457126501481
 309 1 1 0.0 43.4926570497876 50.8954602959558 31.302687222755043
 310 1 1 0.0 43.9269707812108 50.8419433181088 32.63649358915605
 311 1 1 0.0 43.5252911477839 49.7862558316295 33.46802890804587
 312 1 1 0.0 42.6449467655206 49.8964274082892 30.79828085076858
 313 1 1 0.0 42.1504030241346 48.9102173575403 31.67617036550635
 314 1 1 0.0 42.669463283172 48.7847303560046 32.98096676788437
 315 1 2 0.0 43.859347749683 51.6795290248946 30.64647225601233
 316 1 2 0.0 44.6249491037422 51.5815686188027 33.01164420288981
 317 1 2 0.0 43.9496198135529 49.7015762194508 34.46478376726313
 318 1 11 0.0 42.6118100089948 47.5640096650066 33.71212256122807
 319 1 11 0.0 42.3907975180778 49.8556714979102 29.39506693971616
 320 1 2 0.0 41.4859605729376 48.1540660316908 31.283433377683348
 321 1 6 0.0 42.2733128900871 50.7649769158675 28.964520705700178
 322 1 6 0.0 43.3811396903903 47.4489789147932 34.36037994745397
 323 1 1 0.0 9.72057209940868 20.27785406672289 35.79627974381859
 324 1 1 0.0 10.0203208866598 20.408284510727597 34.43216235205303
 325 1 1 0.0 11.355266087182592 20.49358053076253 34.014835739730486
 326 1 1 0.0 10.7429237108444 20.198328457019432 36.75871949756887
 327 1 1 0.0 12.086684832026778 20.257678217594968 36.32451885090731
 328 1 1 0.0 12.3913559857215 20.430029694514243 34.960789377162065
 329 1 2 0.0 8.68245955699121 20.26690622214501 36.10899134331313
 330 1 2 0.0 9.21732822362476 20.470102059342224 33.70310889795576
 331 1 2 0.0 11.582284001956582 20.6275082706819 32.961809232607195
 332 1 11 0.0 13.740128095704202 20.57565388418773 34.54769380414239
 333 1 11 0.0 10.3439318921991 20.127129850707668 38.12821485690896
 334 1 2 0.0 12.906576509017162 20.225507990172613 37.031692304417234
 335 1 6 0.0 9.35568491280459 20.292352755084753 38.27568982046371
 336 1 6 0.0 14.336345196781613 19.766234552113676 34.67061579580551
 337 1 1 0.0 7.15854059989427 31.990355625947206 2.74732204216133
 338 1 1 0.0 6.03468236890591 32.63973888462887 3.28340859709304
 339 1 1 0.0 5.82393000597855 32.65130012822143 4.67205583333897
 340 1 1 0.0 8.08031793657107 31.36449375694938 3.60359003143044
 341 1 1 0.0 7.90799227169714 31.44740656044648 4.99456999571213
 342 1 1 0.0 6.75253853463167 32.04342615191104 5.53524464687945
 343 1 2 0.0 7.2896962215035 31.938291496184448 1.67002408492147
 344 1 2 0.0 5.31074687102939 33.1060460890957 2.6212717896684
 345 1 2 0.0 4.92531902435931 33.109569756677836 5.07461092631011
 346 1 11 0.0 6.42546451222678 31.896530810020604 6.90930885894107
 347 1 11 0.0 9.12465318361804 30.56589498347027 3.07456284714897
 348 1 2 0.0 8.60844429832697 30.924523469605166 5.63878979568027
 349 1 6 0.0 10.0016037372666 31.048728546860644 2.91934493351399
 350 1 6 0.0 5.43892893690305 31.781109244937902 7.10642839215842
 351 1 1 0.0 49.097262763528605 35.09237839701044 52.62486470213583
 352 1 1 0.0 48.19247885708231 34.87905802661976 53.672920348464366
 353 1 1 0.0 46.84634115988347 34.59403053373522 53.39879264695673
 354 1 1 0.0 48.66296430648343 35.02005277903513 51.29229374182701
 355 1 1 0.0 47.30381550534014 34.75024715638033 51.020526181921404
 356 1 1 0.0 46.38208471783362 34.529548326295355 52.06616734867941
 357 1 2 0.0 50.14462849087942 35.276093437351854 52.84866290248369
 358 1 2 0.0 48.54005550182457 34.915908570986765 54.7008566051494
 359 1 2 0.0 46.193548245160905 34.40648650150786 54.2403683515967
 360 1 11 0.0 45.036963822761955 34.19630050966462 51.70825758993312
 361 1 11 0.0 49.644673244326874 35.071892668554426 50.26503045521742
 362 1 2 0.0 46.968826705337115 34.652624691100286 49.9916049787433
 363 1 6 0.0 50.51605794237942 34.60562362175101 50.48640182525443
 364 1 6 0.0 44.88874976589626 34.121163944309245 50.70928177192491
 365 1 1 0.0 -7.84113011108838 7.82957212855575 9.63205064024347
 366 1 1 0.0 -8.00607593838553 6.55846632364261 10.2129384862084
 367 1 1 0.0 -8.84429675951052 6.3914068316834 11.3314149772266
 368 1 1 0.0 -8.49800942728587 8.94193333146426 10.1907831816125
 369 1 1 0.0 -9.29295998114417 8.77574261820865 11.3317756853439
 370 1 1 0.0 -9.5135287941863 7.50080656075011 11.877967967972
 371 1 2 0.0 -7.21634282268635 7.9424464515243 8.75067004475142
 372 1 2 0.0 -7.50098092292581 5.6982356194026 9.78287980633269
 373 1 2 0.0 -8.99633073104905 5.40039936967194 11.7504046178383
 374 1 11 0.0 -10.4539741057459 7.34991033887761 12.9304724245665
 375 1 11 0.0 -8.45866777196922 10.2411560841942 9.62999187249865
 376 1 2 0.0 -9.79912437069185 9.64048355859335 11.7535090769991
 377 1 6 0.0 -8.58782864172061 10.9800697908796 10.3101213873576
 378 1 6 0.0 -10.1419545060395 6.84263455769892 13.7497269032645
 379 1 1 0.0 32.203683071166196 28.589568581205057 27.47651900532769
 380 1 1 0.0 32.265580066200116 29.720537875981723 26.651248379300295
 381 1 1 0.0 32.08501096965254 31.001434663364776 27.196044859708383
 382 1 1 0.0 31.944152601962237 28.735880810091775 28.850348681346908
 383 1 1 0.0 31.74147968884924 30.019873130329508 29.38907449943255
 384 1 1 0.0 31.819940329971764 31.16338592534356 28.57101471419392
 385 1 2 0.0 32.34550275515881 27.60186575519441 27.046048526450825
 386 1 2 0.0 32.46537117300307 29.6037941965042 25.590672195806754
 387 1 2 0.0 32.182999801448055 31.860466722778728 26.544388442188254
 388 1 11 0.0 31.766991704811677 32.44171538804202 29.197567937383692
 389 1 11 0.0 31.86164163428008 27.596401397979605 29.68969844767094
 390 1 2 0.0 31.556268885663652 30.131459739318263 30.454642159243505
 391 1 6 0.0 31.0566212145916 27.554091900039996 30.303064592412422
 392 1 6 0.0 32.13194277903891 32.44462915709018 30.14236258609324
 393 1 1 0.0 26.320318274995483 35.24369712333217 5.37140040786791
 394 1 1 0.0 27.354272156732687 36.13332781081626 5.04512768839183
 395 1 1 0.0 28.633401966506668 35.954116250898316 48.43738691609667
 396 1 1 0.0 26.5615651198831 34.14679708839277 6.22745825340683
 397 1 1 0.0 27.853926547757325 33.96814268015579 6.75563303589652
 398 1 1 0.0 28.88503048526938 34.87252489967626 49.29643457020703
 399 1 2 0.0 25.339114318392127 35.433741320081374 4.95630659690013
 400 1 2 0.0 27.159552639439152 36.96998168990491 4.3826568730036
 401 1 2 0.0 29.42687681237806 36.653166348783195 48.188625121569714
 402 1 11 0.0 30.19207759914847 34.681612084860625 49.80358920590971
 403 1 11 0.0 25.548244538565505 33.2248843430264 6.62113662170989
 404 1 2 0.0 28.057669755547312 33.123148037909864 7.40771958659669
 405 1 6 0.0 25.7797783365636 32.67378713959647 7.43848143726668
 406 1 6 0.0 30.46614358864238 35.27201233961866 50.57989538572446
 407 1 1 0.0 -4.36647973357746 48.00591825247665 2.76475628025926
 408 1 1 0.0 -4.62289551893196 48.98050122436477 3.74326960509741
 409 1 1 0.0 -4.66652114443807 48.6294286135944 5.10203771272045
 410 1 1 0.0 -4.17992591489742 46.66373369600597 3.14597285285234
 411 1 1 0.0 -4.23224311926548 46.31647078046973 4.505365769013
 412 1 1 0.0 -4.46908850391382 47.29358685044616 5.48605723632474
 413 1 2 0.0 -4.36894305919083 48.29021748785646 1.71670263749134
 414 1 2 0.0 -4.80232923498916 50.00736084573305 3.4480759260994
 415 1 2 0.0 -4.86365849375751 49.39139012768446 5.85100240796913
 416 1 11 0.0 -4.49788581611434 46.92548562870579 6.85297273980104
 417 1 11 0.0 -4.08372977417262 45.611901755651616 2.20330957542318
 418 1 2 0.0 -4.10151394058985 45.279227142743686 4.80088757229651
 419 1 6 0.0 -4.49297332974346 44.73908542313777 2.51311950859868
 420 1 6 0.0 -3.79470747845249 47.348674878283525 7.44676414559414
 421 1 1 0.0 8.71271500638233 37.82522348911531 29.227827076432963
 422 1 1 0.0 9.93327026028638 37.529128360983705 28.600373300470103
 423 1 1 0.0 10.2505273083242 36.20357897134933 28.261559792293166
 424 1 1 0.0 7.80143769664694 36.795264142390465 29.51704055931976
 425 1 1 0.0 8.12596631620728 35.46991629003491 29.174083603180065
 426 1 1 0.0 9.35098823237467 35.16216462408983 28.5499638239235
 427 1 2 0.0 8.47180184947601 38.85501203488103 29.476841634033985
 428 1 2 0.0 10.6312599798253 38.32732116587396 28.369870429905983
 429 1 2 0.0 11.195096514558797 35.987009704087974 27.769364496024558
 430 1 11 0.0 9.68940622015609 33.83725420727006 28.154631547652894
 431 1 11 0.0 6.56660016414782 37.10236733458166 30.149035943462664
 432 1 2 0.0 7.41677246389894 34.6839146004216 29.3919726444446
 433 1 6 0.0 6.61034534044312 37.786744061919215 30.894515043241167
 434 1 6 0.0 10.3145706410701 33.778726825352834 27.360262905545877
 435 1 1 0.0 56.3040477577702 50.452811669138 29.418983640219
 436 1 1 0.0 56.873725223869 49.3382010040692 30.053961983730712
 437 1 1 0.0 56.405480514407 48.0460091162235 29.762408514651888
 438 1 1 0.0 55.2475919838194 50.2763269130411 28.509471014129296
 439 1 1 0.0 54.8080580338125 48.9777660354056 28.19109958326867
 440 1 1 0.0 55.3808487197025 47.8534484331793 28.818082726389463
 441 1 2 0.0 56.6309389089825 51.4520802603886 29.690582966232938
 442 1 2 0.0 57.6691201321949 49.476669497376 30.78002277701719