ITEM: TIMESTEP
0
ITEM: NUMBER OF ATOMS
6768
ITEM: BOX BOUNDS pp pp pp
1.0727363000000000e+01 5.4375622999999997e+01
1.1247000000000000e+01 5.3752614000000001e+01
7.1428099999999999e+00 5.8442014000000000e+01
ITEM: ATOMS id mol type x y z fx fy fz
6305 1 1 20.9145 15.2259 19.7577 3.73721 6.66054 -3.99762
2226 1 6 15.809 18.1549 13.4933 -139.01 -24.5583 -20.4259
287 1 2 19.0623 12.5837 18.7754 -7.93081 -3.88962 -4.43263
281 1 1 18.5436 11.6373 18.952 -7.10317 6.79771 42.6247
1407 1 2 20.5286 14.648 12.0113 4.57462 -8.13544 13.7578
2456 1 1 11.6601 18.2966 17.3645 -763.188 239.173 -122.2
1402 1 1 21.0942 16.1894 13.2939 29.1969 45.6838 45.2411
5389 1 1 11.7241 13.6899 14.5098 -68.5877 42.037 -34.8356
6306 1 1 20.654 15.4138 18.3551 -56.1967 -21.6564 37.94
6315 1 4 18.1848 15.3377 18.5201 6.65255 -4.88469 24.0907
5388 1 1 12.8361 12.1535 16.586 -31.8916 31.1502 -54.1879
2221 1 2 14.4574 14.9219 14.0169 -28.0483 6.77511 -23.9665
2213 1 1 17.2194 14.1423 15.659 11.5122 3.67219 7.25969
2216 1 1 17.739 15.414 15.8078 31.2081 -24.0928 36.4394
2217 1 1 17.1144 16.5357 15.3343 -42.1047 -26.0822 15.8475
2218 1 1 15.8592 16.3999 14.6785 51.8848 -145.331 122.773
6311 1 10 19.1808 15.3251 17.8231 31.9561 15.6342 14.3984
2222 1 8 15.8628 17.3431 14.0646 -1294.91 509.016 -138.525
2223 1 11 18.9819 15.4715 16.4808 6.27345 13.9697 -54.7535
2224 1 2 17.5773 17.4644 15.561 17.0587 13.9546 -11.5081
6308 1 2 21.4963 15.8909 16.474 3.45452 -10.5018 8.35927
2451 1 1 13.7878 16.9936 18.4619 19.329 -35.7507 -13.8366
2457 1 2 14.6868 16.5183 18.9207 -16.9243 -9.55521 -2.33449
5387 1 1 12.7905 11.6048 15.2748 -357.759 871.731 -133.371
5400 1 4 12.0181 12.7473 19.1075 1.09331 37.8688 2.14371
2215 1 1 15.3481 15.121 14.5131 -6.9813 -13.0221 6.08567
5386 1 1 12.3208 12.4243 14.2455 10.9325 -7.86433 -27.3602
2225 1 6 19.694 15.8314 15.8355 4.00686 -4.08979 27.512
5393 1 2 13.2575 11.5282 17.2995 13.2817 17.5822 91.1545
2452 1 1 13.9556 18.1995 17.8088 60.1921 26.6221 4.64119
2220 1 2 15.6542 12.9698 14.7388 -0.505682 27.4417 15.494
2219 1 2 17.7393 13.2969 16.059 3.93028 -9.54508 1.87937
2454 1 1 12.5716 16.3091 18.276 -28.7896 -49.5758 47.8766
1401 1 1 21.2009 14.9126 12.8449 0.201244 -76.5607 -67.2946
5392 1 2 12.3392 12.0434 13.2749 -3.46351 -7.89299 -28.557
2214 1 1 16.0446 13.9958 14.9955 -44.7977 -30.9717 -34.709
5391 1 1 12.2371 13.3864 16.9171 24.2278 4.87304 -4.91935
5396 1 10 12.1549 13.7472 18.3877 -15.2927 -54.7043 -0.930173
1408 1 2 20.2931 16.8775 12.9993 -0.524598 -2.5498 -4.54173
2463 1 6 12.5224 15.0449 19.9281 -4.35856 -4.47863 -0.928614
2461 1 11 12.3664 15.0095 18.9239 12.2622 39.9967 -15.4132
5390 1 1 11.6591 14.0983 15.8508 -535.62 278.264 97.2301
2455 1 1 11.4337 17.0398 17.8813 -688.687 -176.507 12.3919
5395 1 12 10.7274 14.538 13.4944 -500.923 297.58 132.071
6641 1 6 13.1292 17.9788 13.9713 1412.2 -308.372 37.5448
6699 1 6 21.4625 11.791 11.038 757.989 674.478 998.912
6716 1 7 10.7274 14.2312 12.184 33.8034 -21.8636 -3.25103
137 1 8 19.7443 19.953 11.6806 -nan -nan -nan
139 1 6 19.1424 19.2793 11.5745 -38228.5 -42622 -6664.57
5189 1 4 18.4529 20.6263 18.5806 14.6785 13.6424 7.63289
5190 1 4 17.9126 19.0189 13.6149 -1291.86 -3838.25 -853.903
512 1 2 20.7762 18.5888 18.8591 7.3071 0.997883 -6.79018
5180 1 1 18.7389 20.8042 15.732 16.1835 55.1783 0.389849
5185 1 10 19.1208 21.5277 18.0765 -31.0237 -4.27897 2.47321
130 1 1 20.2912 20.9476 11.8482 671351 1.22114e+06 205630
2458 1 2 14.9779 18.6276 17.7814 -9.34611 -5.20154 -1.83657
138 1 2 21.3514 21.0514 13.7464 13.3746 -15.6656 -9.53804
5181 1 1 18.6699 21.1306 14.3884 402.172 861.562 829.831
5184 1 2 18.7787 19.7858 16.0236 17.6326 -19.0467 29.2107
2459 1 2 13.0454 19.8453 16.7071 -2.3615 1.53234 1.79245
2453 1 1 12.9232 18.893 17.2225 -38.3419 1.93711 -12.6925
5186 1 12 18.2577 19.9903 13.9703 -nan -nan -nan
511 1 2 21.4848 18.6789 16.4539 -12.942 12.4596 51.5634
131 1 1 21.2801 21.4195 12.7174 -39.9011 -43.1065 121.117
127 1 1 20.1904 21.4181 10.515 405.521 1311.16 -962.302
133 1 2 19.3967 21.0568 9.85049 4.049 19.9311 -41.245
1261 1 1 15.2964 23.8286 16.0721 -28.005 -30.2716 23.8631
5183 1 2 18.4959 22.6096 12.8564 -12.0608 9.07801 11.937
1263 1 1 14.9789 23.8506 18.5119 -9.96213 6.2494 30.5925
1267 1 2 15.212 23.3634 15.0979 -6.73327 -5.58357 0.356446
6023 1 2 11.9472 25.2826 17.6545 10.4028 2.51656 -16.7289
1269 1 2 14.665 23.3746 19.4913 -1.51943 9.36245 -32.9034
1264 1 1 16.0628 24.9423 16.2144 48.5533 36.0008 -41.413
5178 1 1 18.5237 22.454 13.9457 4.52585 -23.8795 -34.7637
1383 1 11 20.0227 22.397 18.7356 -13.214 -22.6623 -19.7223
5187 1 10 17.8704 24.831 14.3878 16.2153 -36.1811 17.2137
5188 1 4 18.4549 25.3991 13.485 -1.8841 2.5471 -4.11608
5176 1 1 18.4634 23.1875 16.2251 18.4569 -50.6678 43.9813
1266 1 1 15.6325 25.1059 18.6082 2.46993 -42.2695 -22.9238
5177 1 1 18.342 23.4697 14.8802 -19.2484 38.9108 -27.7498
1262 1 1 14.7218 23.2685 17.242 11.3482 -3.78144 5.40192
1385 1 6 20.6397 22.8155 18.0651 5.31577 17.3962 8.09978
5182 1 2 18.3558 23.8925 17.0351 0.797876 16.5158 -8.75667
1271 1 11 16.8095 25.4011 15.0522 2.63188 -9.72507 14.4451
1384 1 2 21.3584 24.2285 19.946 13.9839 14.6457 -0.135685
1268 1 2 14.1675 22.3395 17.1999 -0.493908 5.53971 -5.0839
5179 1 1 18.7588 21.8517 16.6474 4.34546 22.6821 13.7781
134 1 2 20.9608 22.8221 9.14053 9.19905 18.2116 -16.5668
128 1 1 21.0594 22.4715 10.138 -28.8546 -22.3311 -6.65877
6657 1 6 18.2577 19.9903 13.9703 -nan -nan -nan
6658 1 7 19.7443 19.953 11.6806 -nan -nan -nan
4924 1 1 20.2718 26.9435 11.2796 145.901 -43.4865 167.57
3666 1 1 16.3272 32.1979 18.1819 36.6312 75.6674 68.3627
3671 1 2 15.6007 31.7584 16.2238 6.2364 -5.65534 14.5833
1828 1 2 13.4456 30.3881 18.7053 9.42892 22.2656 -6.8131
6020 1 1 11.6855 26.5817 14.5004 -711.297 -351.06 -130.592
6021 1 1 11.999 26.5539 15.8717 39.3953 18.2662 -39.4008
1816 1 11 20.3911 30.59 17.0504 21.4914 -38.2042 2.18348
1272 1 2 16.8055 26.4406 17.4924 26.8996 31.0596 0.473606
1265 1 1 16.2767 25.5591 17.4505 -37.8027 -4.70207 3.28596
808 1 11 13.0083 28.9142 16.0712 0.713343 55.6887 -4.47813
1317 1 1 16.698 28.4675 13.4801 -193.983 -505.872 1.17729
1270 1 11 15.8358 25.7266 19.8316 13.2542 9.4442 19.426
4925 1 1 19.675 28.1568 11.6703 -54.7248 21.769 -33.0094
812 1 6 13.7109 29.4965 16.6628 -37.3174 -28.9827 -34.8292
1327 1 8 17.4105 30.4387 13.3542 -nan -nan -nan
2851 1 2 18.1196 28.5633 17.692 -6.06101 -24.1058 19.0273
2852 1 11 17.846 30.6697 19.322 1.13323 -27.8907 2.20074
1324 1 2 15.2648 26.8618 13.486 -14.8169 8.73353 -1.76244
6030 1 4 13.5592 27.1995 17.387 19.1682 12.303 19.8393
1274 1 6 15.5175 26.6839 19.9217 -2.59425 -0.893636 -5.89313
2845 1 1 18.4916 28.3353 18.7129 41.4262 17.5736 17.855
4929 1 2 18.7832 28.5296 11.1928 2.32505 -2.01861 -17.3765
6026 1 10 12.8891 27.6094 16.4768 -3.23684 -36.6554 13.4665
1329 1 6 17.695 31.2256 13.6931 20034.3 55464.8 23787.3
800 1 1 11.9049 31.3755 13.4639 -1068.03 -37.5708 19.2518
5050 1 10 21.5576 29.8987 16.8088 -29.6944 -16.0309 -11.6083
1328 1 2 16.3933 31.3042 11.6332 -28.7774 8.63338 -18.0965
2844 1 1 19.3359 27.214 19.0055 -26.8283 23.9245 21.7199
3676 1 4 16.1061 29.9305 18.0594 -15.6117 -34.9301 -7.42237
801 1 1 12.6867 30.5848 14.2947 -14.603 1.83297 -15.9247
1815 1 2 18.6089 31.8764 15.87 -11.1945 -3.89377 -24.1812
1812 1 1 20.2726 31.9426 17.1485 -53.41 23.9947 -23.5902
3672 1 10 16.6471 30.8328 18.6202 19.8758 12.3325 0.764811
804 1 1 12.1284 29.6645 15.1502 -979.905 -33.6361 115.957
2850 1 2 19.3739 26.4177 18.3602 3.30085 -28.9454 -31.2337
6024 1 2 11.948 27.4128 13.9278 21.1066 22.3543 -17.4046
4935 1 4 20.1018 31.1399 13.7352 38.9354 2799.46 2004.88
1820 1 6 19.56 29.9744 17.104 5.89452 27.1831 -1.8229
2856 1 6 18.3844 31.4909 19.5226 1.24007 8.30989 4.91359
1318 1 1 15.5054 27.8452 13.0879 0.854125 -3.16222 -3.07176
1319 1 1 14.6248 28.5225 12.1985 29.4399 -41.6195 38.633
1322 1 1 14.8759 29.749 11.6737 163.896 -200.738 52.8168
1323 1 2 17.3375 28.1165 14.2282 11.8642 -23.7016 23.6791
1320 1 1 17.0188 29.6257 12.8302 -1.81526e+06 -3.76702e+06 -2.42804e+06
4931 1 12 20.1233 30.2263 13.1129 -nan -nan -nan
1273 1 6 16.7268 26.3223 14.7398 -20.0674 29.6982 7.45875
1822 1 1 12.5139 30.0929 19.1193 -17.2877 -14.3403 2.77256
4921 1 1 21.3999 26.4935 11.9757 8.38662 46.8134 58.8374
807 1 2 13.7158 30.6927 14.2235 34.1153 1.10524 3.32385
2848 1 1 18.5017 29.4131 19.6444 -26.8986 2.39503 -0.474359
4926 1 1 20.1287 28.922 12.7419 134.372 -592.392 -68.8523
6018 1 1 11.6641 25.4252 16.5957 -802.188 -357.148 -176.39
1321 1 1 16.1146 30.3103 12.0374 -1949.32 -155.666 -2031.39
1325 1 2 13.6263 28.1714 12.0976 -20.5142 -162.415 55.8316
4923 1 1 21.3438 28.5543 13.3006 -3.37527 -45.1744 21.4093
806 1 2 12.3558 32.1661 12.8998 10.187 4.72675 -11.7179
5054 1 4 21.3245 28.7309 16.5928 33.1854 -19.2567 -5.51974
4934 1 4 20.4985 25.4175 9.53019 139.116 -266.385 -108.802
2024 1 2 21.6248 30.3454 10.7014 -16.0093 -20.2428 -1.31232
4930 1 12 20.3915 26.1389 10.2115 -1400.82 179.508 -108.075
1326 1 8 13.7632 29.8624 11.3683 -63.1334 1560.56 -694.223
1330 1 6 13.0273 29.8159 10.9234 -37.2224 -9.20333 -138.718
1823 1 1 11.3099 30.1988 18.4052 -1294.48 -158.917 -31.8847
6029 1 4 11.3174 26.5099 11.7424 -463.317 -106.74 343.594
6655 1 6 20.1233 30.2263 13.1129 -nan -nan -nan
6656 1 7 17.4105 30.4387 13.3542 -nan -nan -nan
6666 1 7 17.6476 25.8645 10.1317 1119.5 123.207 31.7455
6679 1 6 13.8285 32.2374 9.94155 -56.3453 -1221.12 724.353
6309 1 2 20.1774 15.0764 20.5583 -12.3895 -3.59926 -24.2395
6482 1 1 14.5299 16.7493 21.7517 2.84046 13.6492 -10.4793
6483 1 1 14.6713 15.3517 21.6013 28.7609 19.2003 5.39919
6488 1 2 13.7907 14.7841 21.5595 -19.6995 -19.1836 -6.45879
293 1 6 18.078 13.3072 20.8161 -2.56718 33.7199 13.7829
6491 1 10 15.9487 13.1826 21.131 64.923 33.0786 8.74171
6493 1 4 12.0307 16.9121 21.7869 39.4209 1.8713 -0.0786138
291 1 11 17.257 12.7346 20.778 -14.8391 -31.9892 -13.9159
284 1 1 17.6107 11.5431 20.0616 -6.71964 6.72926 -41.0629
6492 1 10 13.1433 17.4756 21.7653 -5.10536 -13.7922 4.05315
6486 1 1 15.9499 14.6888 21.546 -54.5206 -36.6356 -24.7861
6495 1 4 14.9485 12.537 20.9138 -13.7561 3.7252 -3.9672
6481 1 1 15.7516 17.4792 21.8354 -12.7351 -14.1567 19.0435
6485 1 1 17.123 15.4146 21.7036 11.7568 65.2708 12.4483
6234 1 2 15.0163 12.5841 28.6893 -25.6559 -4.6929 11.0108
6239 1 4 12.8253 15.9473 28.5991 -25.7941 24.0276 -2.46868
2495 1 1 16.6884 17.9644 25.1405 -21.7312 -54.2616 11.0441
1050 1 6 13.6273 12.4922 23.5415 10.2436 11.2039 6.09507
5678 1 2 21.0386 15.9314 25.1389 31.9096 -35.2274 -1.01892
6518 1 2 12.2648 13.1035 22.5857 -16.3382 14.8167 11.3669
1041 1 1 16.6036 12.7808 24.8453 0.22323 12.6268 15.1394
2501 1 2 17.2113 16.9623 25.3372 -12.788 41.0868 -21.9717
6233 1 2 18.84 14.4971 28.8073 -22.6078 4.97093 -5.05435
1048 1 2 16.8178 13.8217 24.581 -15.1537 -12.2149 -10.3736
1070 1 1 19.9093 18.0121 27.3783 -24.6276 8.74303 -3.94596
6240 1 4 18.8078 11.9164 28.8644 -24.5052 13.7924 -1.63373
4828 1 10 20.8553 13.2417 31.0688 37.2981 -56.487 6.68753
1074 1 11 19.0351 17.0094 27.9708 52.1279 15.7019 -35.7556
2729 1 6 13.3688 12.9722 29.3759 -0.24926 -8.15764 -12.3577
1078 1 6 19.3765 16.106 27.6609 -10.0397 -7.01762 10.7459
6521 1 10 13.8856 14.2162 24.6523 -70.6133 -16.6156 -67.494
5681 1 10 19.3815 13.796 25.4887 29.9399 -45.4536 16.7937
1040 1 1 17.5966 12.0271 25.4773 -9.6346 -13.3254 4.15431
6235 1 10 13.3669 14.9197 28.8731 57.3414 -30.382 -12.3237
5679 1 2 20.9617 11.8919 26.7308 17.0298 -17.321 -2.22341
1049 1 6 19.5704 11.7217 25.6668 -2.39605 13.5333 -2.41711
2500 1 2 15.0246 17.3846 26.4409 6.44529 -12.8204 17.088
2494 1 1 15.4535 18.1391 25.8132 11.4146 22.2924 5.86135
2915 1 1 18.7182 15.3191 31.7434 -49.9468 -12.3154 4.18395
1047 1 11 18.9042 12.4929 25.5285 10.8719 -15.5603 1.6782
6237 1 10 17.7978 17.0938 28.5277 -9.72662 35.0365 14.143
6516 1 1 12.4903 14.5998 24.1291 15.934 32.1618 7.65055
2914 1 1 17.5467 16.1534 31.9769 31.449 -50.0229 6.19828
6230 1 1 15.531 13.5027 28.8112 23.969 35.1271 -10.9618
6525 1 4 14.3982 14.8211 25.5283 33.8001 14.0097 35.7546
6238 1 4 17.2442 18.1671 28.7582 15.0579 -3.29435 -8.33972
4832 1 4 21.172 14.1565 30.3674 -5.5669 27.0759 -16.6468
5676 1 1 20.8644 13.8322 25.7935 39.8732 15.5939 -6.58238
6515 1 1 11.8779 15.7271 24.6783 -1019.36 105.163 -25.3751
2913 1 1 16.3828 15.538 32.501 49.5084 5.05824 -8.22828
1042 1 1 15.3293 12.2281 24.6875 21.0897 0.577758 -24.0437
6228 1 1 17.7254 14.5924 28.7916 16.1393 -21.7941 11.02
5685 1 4 18.6743 14.7602 25.4636 -3.20973 32.061 1.21281
2921 1 2 19.5882 15.673 31.2437 5.7061 22.457 3.05763
1496 1 2 20.3978 12.4984 23.1986 8.12444 -11.4754 -9.18946
2918 1 1 18.6504 13.9033 31.9661 -67.3896 26.5129 27.3779
2727 1 11 12.7397 13.7065 29.061 -16.4301 -20.45 7.18492
1046 1 11 14.3041 13.0171 24.1134 1.31181 -23.3197 15.4359
1489 1 1 20.8971 12.0526 22.3155 13.1151 12.5351 -32.0137
6236 1 10 17.587 12.058 29.0003 21.5565 -3.62362 18.3416
6231 1 1 16.9333 13.4368 28.9202 7.45509 -36.6743 -10.8518
1076 1 2 21.5542 16.8172 27.783 19.8761 -29.5395 6.8223
1069 1 1 21.2474 17.6134 27.1788 -34.6669 25.6935 13.811
2922 1 11 19.7752 13.1221 31.8988 -0.946502 -18.1392 -11.9254
6226 1 1 15.7049 15.9364 28.801 -10.7472 -24.1175 -1.73202
6227 1 1 17.0873 15.825 28.7509 0.369092 16.1388 -8.61959
6229 1 1 14.905 14.7792 28.7373 -35.0286 -6.31651 28.382
6232 1 2 15.264 16.9143 28.8348 -14.3911 2.50693 -4.58863
5675 1 1 21.5663 12.7266 26.3974 -24.7978 6.79208 -5.63942
6519 1 2 12.426 16.3144 25.4346 -9.6849 -9.62187 -7.65415
3643 1 4 14.6344 12.1324 31.5881 11.9534 -32.45 -53.1334
6490 1 10 18.1743 17.606 22.3186 40.2596 -0.641097 -9.80554
6484 1 1 17.0139 16.8304 21.9219 -50.3249 -19.5535 -4.39895
5673 1 1 21.6338 15.0048 25.4687 -62.3575 4.35424 29.4141
2926 1 6 19.6452 12.2338 32.3435 4.76424 -6.7853 5.52588
6513 1 1 11.7584 13.9209 23.1538 -987.149 101.224 -163.407
1502 1 1 21.6067 17.8386 32.4345 -14.2852 0.889158 13.057
2920 1 2 17.5646 17.1928 31.7548 -0.154739 15.6962 -2.68474
2720 1 1 11.3409 13.3971 29.2033 -1390.79 -26.6562 33.8954
6489 1 2 18.1329 14.9899 21.7164 -13.108 -25.979 -4.3181
6494 1 4 19.2314 17.2595 21.8595 23.1298 -1.77546 -3.89881
3639 1 10 14.332 12.5565 32.6375 27.8789 68.5003 65.1322
2916 1 1 16.3844 14.16 32.7224 -103.066 4.18694 14.3372
3633 1 1 12.1228 11.4455 32.6072 -980.383 -157.289 164.149
2924 1 2 17.2842 12.2508 32.6415 6.86404 -0.995239 0.41878
2917 1 1 17.4053 13.3161 32.4621 86.379 12.4363 -28.8538
2919 1 2 15.4986 16.0863 32.665 -15.9169 15.4301 1.81364
49 1 2 12.6197 20.9232 20.2924 8.08847 22.7152 -13.5945
1373 1 1 20.0589 21.3661 20.993 6.16944 16.0793 -30.4095
43 1 1 11.9341 20.8662 21.1016 -763.224 311.086 80.9431
1379 1 2 19.5301 20.5172 20.6413 -6.20886 -5.30377 -3.33734
55 1 6 13.9584 19.3777 21.4119 11.2103 -13.7613 6.41454
53 1 11 13.1735 18.8669 21.7968 -34.7855 8.03274 13.4336
2496 1 1 15.2654 20.3851 24.913 -8.84954 -4.26387 39.3948
4636 1 1 14.0662 20.9125 31.9776 -71.7533 -8.58339 0.892372
1067 1 1 19.4299 19.2064 26.7398 28.4297 -32.7693 5.97929
1507 1 2 21.3121 21.6401 31.4105 0.917393 -5.9896 -10.2265
2502 1 11 18.1633 18.5804 23.2866 -70.9061 -4.959 12.0533
1065 1 1 21.5859 19.3968 25.5341 -32.2605 -31.6706 27.4587
6487 1 2 15.6954 18.5375 22.0538 1.14054 1.0629 -9.40032
4644 1 4 18.7454 21.0103 30.183 0.323859 -7.92315 6.01066
2493 1 1 14.8054 19.3856 25.7954 -2.85499 -8.16084 -10.0077
4635 1 1 13.9716 21.3125 30.6251 41.3894 8.36306 -20.7002
2894 1 11 11.7923 20.2398 30.333 -719.182 -183.928 -219.246
2499 1 2 13.906 19.5277 26.4171 8.78094 -0.918262 -10.6304
4632 1 1 15.1877 21.7017 29.9737 -14.9475 -16.866 6.14992
4634 1 1 16.4838 20.966 31.9387 -64.1009 -25.7634 3.20594
2498 1 1 17.0689 18.8931 24.1738 24.8599 9.43749 -0.0235659
2506 1 6 19.0158 18.8571 23.6026 48.9667 20.727 19.6618
2503 1 11 14.5092 21.5756 24.9107 5.53202 4.14224 -20.4171
4633 1 1 16.4074 21.439 30.6192 46.6873 9.89214 -30.6045
1073 1 2 18.4434 19.5663 26.8977 -16.4704 2.46799 2.77405
46 1 1 12.0468 19.7541 21.948 -743.673 1.81483 350.582
2504 1 2 16.8648 20.8932 23.4849 -8.67151 6.0215 1.02619
2497 1 1 16.416 20.1497 24.1369 20.8623 -10.8259 -2.59943
2898 1 6 12.0672 19.6307 31.0847 9.50609 7.62899 10.4715
1501 1 1 21.3522 20.5803 31.6664 3.69802 -6.0461 -22.503
1072 1 2 19.921 20.7278 25.3136 -7.61536 12.5362 -6.46105
4641 1 10 12.7783 21.0403 29.751 -27.387 24.681 -28.4223
4639 1 2 17.3482 20.6162 32.4247 31.2539 4.94464 -0.761517
1066 1 1 20.2615 19.8483 25.805 26.1612 4.37311 3.38955
4645 1 4 12.6212 21.6068 28.6404 5.3895 -22.8911 40.1387
1374 1 1 20.4514 21.3597 22.3086 12.3873 6.69199 42.0608
4638 1 2 15.225 21.9609 28.9024 -9.43789 -1.89814 10.9848
2896 1 2 12.041 18.6583 28.1002 -753.031 41.9267 103.999
4643 1 12 17.705 21.502 29.798 -5.49867 -7.93263 28.3225
1380 1 2 20.122 20.5449 22.9414 -0.519401 -8.39175 -2.23675
4637 1 1 15.2621 20.6169 32.5773 58.1838 3.87715 5.44011
4640 1 2 13.1232 20.6365 32.5394 24.2805 5.58774 -21.7796
4675 1 10 16.6893 25.2893 20.8351 -2.81515 -24.8105 -18.8903
4679 1 4 17.3178 24.2208 20.7429 -13.8429 23.3008 3.56093
1376 1 1 20.4225 22.414 20.1073 -11.4209 -45.0635 11.9971
1377 1 1 21.2054 23.4197 20.6258 -3.68014 17.7231 34.7233
3823 1 2 17.3357 25.1459 26.9493 -5.01712 -17.3128 -4.67686
2053 1 2 14.0929 24.1199 29.4727 18.1518 24.1495 0.145436
2046 1 1 15.0603 25.1511 31.0912 27.87 44.1484 71.9125
6340 1 10 14.289 22.3395 23.7698 23.7092 -25.0341 -1.14153
2127 1 6 11.8905 23.6552 27.2777 -741.048 298.453 50.2862
2047 1 1 14.5413 25.0977 29.8136 -20.5494 -63.8655 8.42012
2052 1 2 15.1086 24.2266 31.6825 -2.86825 8.72425 -4.12812
1378 1 1 21.4927 23.5068 22.0454 2.85613 22.21 -46.1197
6339 1 2 12.557 23.0154 25.8496 1.44442 -24.3111 9.43196
1375 1 1 21.2025 22.4229 22.8782 -19.8832 -20.1343 -24.3551
6334 1 1 13.342 23.4355 23.8854 -27.4163 43.7572 18.3953
4647 1 7 17.7369 22.2142 28.6755 0.235797 10.6225 -16.797
6335 1 1 12.5429 23.6557 25.0192 -8.76251 29.0104 -3.54887
4750 1 9 18.5264 22.9132 31.2002 26.6868 20.7702 5.02601
1381 1 2 21.456 22.4018 23.9197 -0.766546 4.97823 10.1208
6344 1 4 14.8199 22.0453 22.7004 -13.756 23.7398 8.38414
3828 1 4 19.6327 24.579 27.5286 11.2415 -2.69228 2.26128
6331 1 1 13.2487 24.411 22.8837 32.7843 -15.0674 -71.2451
6336 1 1 11.6723 24.7749 25.0422 -558.501 99.1575 272.022
6337 1 2 13.9614 24.2455 21.9955 -29.9241 10.39 29.9846
2505 1 6 13.8975 21.6996 25.7046 3.7177 -0.137573 -2.56404
4749 1 7 19.2128 23.6292 31.4289 -44.4128 11.0763 16.8537
4648 1 9 18.6722 22.1541 28.3534 -13.1039 1.26121 2.0224
4745 1 12 18.5033 24.5186 32.2475 16.4512 -8.26956 14.9577
2849 1 2 20.5358 26.1259 20.4158 4.24464 17.1887 4.7327
6342 1 10 12.2269 26.3655 21.6081 8.57927 -27.0034 8.06855
2843 1 1 20.0408 27.0841 20.2135 -23.0861 0.509289 -6.82494
1824 1 1 11.3675 28.4965 20.6441 -919.103 16.2279 -247.173
2847 1 1 19.1232 29.2482 20.9083 -4.42937 17.3799 -31.1908
2854 1 2 19.083 30.0636 21.6169 1.77778 -0.271736 2.3122
1821 1 1 12.5214 29.1999 20.2131 -14.0801 9.01034 4.24563
1827 1 2 13.422 29.0502 20.8089 -4.70382 -6.478 -25.9383
2846 1 1 19.9089 28.1257 21.1455 40.7988 -16.6713 49.9218
6343 1 4 12.9955 26.2125 20.6754 0.947127 -4.16141 -5.37404
4672 1 2 15.266 27.5031 21.4879 10.0927 18.4048 16.1873
1831 1 11 11.4263 27.4635 21.6639 -670.389 71.3732 281.126
2283 1 1 19.7489 31.0539 25.5117 5.82581 16.8512 20.1845
2293 1 11 18.5771 31.3263 27.6293 -2.00258 -5.03888 18.5657
4678 1 4 16.1547 30.6375 23.9477 5.59658 20.7711 15.3642
6263 1 2 19.5629 30.4858 31.1797 34.1875 -24.3862 -4.87941
6270 1 4 18.125 28.4176 30.7761 -37.039 19.2495 9.20248
6333 1 1 11.5182 25.6621 23.9704 -551.151 249.166 18.4916
3830 1 4 14.518 26.5529 25.3585 5.42294 -0.307091 0.355939
2367 1 1 11.5875 30.1245 24.3264 -1032.24 132.41 17.1034
2045 1 1 15.5077 26.4213 31.7102 -23.5261 -36.4483 -81.5977
3825 1 10 17.5006 30.4726 27.8741 12.6308 -11.7369 -16.9399
4734 1 1 20.2985 26.328 31.8277 25.4189 0.673588 -18.8976
3832 1 9 20.5037 27.2707 28.3899 5.9066 -6.09795 0.61294
6261 1 1 17.4987 30.6723 31.2457 8.89194 23.5201 1.36645
4682 1 9 14.1721 30.6365 22.9104 -8.51361 3.19079 -0.203524
2286 1 1 19.7909 31.1383 26.9662 -14.5977 -12.9634 -91.6926
2058 1 6 13.3241 25.6969 27.3945 9.6745 5.24032 9.78067
1386 1 6 21.0958 25.4714 22.3888 22.8534 1.86931 5.7982
2049 1 1 14.8835 27.4766 29.5601 -2.25999 -33.2728 2.66792
2050 1 1 14.5313 26.2013 29.034 5.66185 63.9238 -43.2959
2287 1 1 20.997 30.9248 27.6068 36.7621 -37.3351 14.0676
2054 1 11 14.2354 26.1104 27.6324 -11.7085 -6.54703 -40.773
2368 1 1 12.0081 29.4004 25.4404 -768.075 27.7394 272.768
2056 1 2 14.7674 28.3463 28.9179 9.96201 -5.76925 0.940783
2289 1 2 18.8732 31.3481 24.8862 3.71617 -10.5327 24.268
4671 1 1 18.5948 27.1745 23.4384 44.0782 18.3682 30.9001
2374 1 2 13.0023 29.0997 25.4916 24.5593 -17.7415 37.0571
6332 1 1 12.2639 25.437 22.8108 24.4235 6.85484 0.704329
6264 1 2 15.3774 31.4633 31.4296 51.574 -11.7475 -4.66994
3585 1 2 13.7588 31.5467 27.2937 26.4457 -26.5332 -11.7384
4666 1 1 16.1663 27.4413 22.1327 -42.4793 -11.9574 -19.873
6266 1 10 17.2108 29.1766 31.1668 77.5634 2.03614 -23.3555
4669 1 1 16.9276 26.2872 21.9161 54.7003 -0.547967 12.8937
3822 1 2 19.6234 28.5965 28.0981 -4.08937 -6.03514 -5.18082
3829 1 4 16.4764 30.9954 28.2895 -3.86272 -16.5489 -0.328792
4680 1 4 20.6251 27.4271 24.7672 -17.6324 9.72215 -38.5753
6260 1 1 16.5148 31.6657 31.37 -97.7241 14.4966 3.7102
2048 1 1 15.427 27.5695 30.8581 -7.01787 -39.1357 -3.55165
3827 1 12 19.7522 25.7818 27.6874 -30.1088 4.11943 -9.73448
2057 1 6 15.2317 29.4055 31.6637 12.625 -2.73018 -10.4757
3590 1 4 11.3902 30.4142 29.8415 -21.8532 -15.2151 14.3171
3816 1 1 18.7187 28.1752 27.6344 -6.58762 -11.0469 4.39097
3817 1 1 18.6303 26.7584 27.4401 13.7972 7.2558 -1.77496
3818 1 1 17.4293 26.2003 27.0356 -14.6929 15.5768 4.34049
3819 1 1 17.5764 28.9894 27.4171 31.861 33.1822 17.0995
3820 1 1 16.4406 28.4036 26.9094 -2.80166 30.393 4.79778
3821 1 1 16.3236 27.0305 26.8394 -3.50198 -2.7877 -28.7284
4740 1 2 20.6655 25.708 31.0376 4.12708 -3.23107 -6.60142
2295 1 6 18.501 32.2386 28.0027 -6.34876 15.8792 7.10576
3824 1 2 15.6291 29.106 26.7431 -12.48 -14.927 -5.49182
3826 1 10 15.0021 26.4967 26.4776 -29.6341 -20.4409 55.2397
4673 1 2 18.1196 28.9474 24.379 19.4202 30.9913 22.313
6258 1 1 18.8176 31.1959 31.1827 -33.9138 -14.4182 15.3802
2055 1 11 15.928 28.7828 31.2267 -37.7854 31.9383 35.4143
4668 1 1 17.792 28.2147 23.7378 -101.94 13.8846 -11.6755
3594 1 9 14.2761 30.9115 29.2237 -6.40919 -17.2268 7.77248
4681 1 7 14.6019 29.8638 22.5341 26.0772 3.05795 28.4956
4670 1 1 18.1901 26.205 22.5671 -37.3675 -10.7265 -17.5905
2294 1 2 20.9926 30.8434 28.6707 -2.22614 16.4007 14.6408
4676 1 10 20.0276 27.5526 23.671 6.48531 -25.541 -4.82919
3579 1 1 12.4676 32.2631 28.8055 5.25012 -37.3504 23.1685
2290 1 2 20.911 30.4304 23.7312 -8.63252 14.3108 11.1157
4737 1 1 20.9033 27.5932 32.0063 -52.0089 30.3479 47.8064
4677 1 12 15.6594 29.7036 23.3809 17.2067 -68.4159 -36.051
4667 1 1 16.4911 28.3887 23.1297 21.9022 29.8012 2.58128
2373 1 2 12.2247 30.2384 23.5568 26.3187 17.2189 -44.8144
3593 1 7 13.6407 30.2558 29.6288 -25.1985 48.6468 -8.96047
3831 1 7 20.7579 26.3239 28.3238 26.1757 16.6922 12.9883
2853 1 11 20.5853 27.985 22.4467 -21.5952 -4.6936 -0.848641
2375 1 2 11.5749 28.9258 27.4853 -472.862 80.0951 -198.783
4674 1 2 18.9213 25.5278 22.2418 12.2973 -24.1427 -7.35026
2284 1 1 20.9041 30.6665 24.8133 10.2888 -14.6599 -8.87113
4747 1 4 21.5803 29.1843 30.4214 16.9662 -13.9691 11.9513
3589 1 12 12.432 30.9445 29.5775 36.1691 9.28334 -24.5096
2234 1 2 13.4121 27.5542 32.4732 8.42501 11.7322 2.12952
2855 1 6 21.5394 28.2373 22.4808 20.4305 7.03319 -6.2889
5638 1 4 11.3297 31.7989 32.3458 -1085.74 17.2123 513.057
4735 1 1 19.2082 25.8716 32.5736 -35.7978 -29.2753 26.5032
2051 1 2 15.8966 26.4887 32.7035 6.01972 -1.24891 11.2217
6268 1 4 21.4442 32.4959 30.8435 -13.5862 -0.948064 5.94913
3580 1 1 13.2511 32.3733 27.6606 -16.0701 42.7843 7.9173
2863 1 2 17.2389 17.2069 35.9023 -19.9859 6.34634 -13.4171
2642 1 11 20.4714 17.2328 38.3997 26.2215 -33.4913 -81.321
2635 1 1 19.6123 15.3277 39.6909 -11.3045 34.3695 -28.3136
3630 1 1 11.667 12.1783 35.2701 -891.977 -246.32 -172.573
2643 1 11 18.3412 13.2869 36.1852 25.8854 26.2917 14.9978
1509 1 11 21.5127 16.4419 32.8224 25.7736 48.1099 -22.5726
2858 1 1 15.5953 16.0201 36.6228 17.1444 -12.6658 6.0766
4125 1 1 20.6675 12.9357 35.1857 -30.6043 29.4859 -13.4988
2639 1 2 17.9332 12.5324 38.7395 17.7204 10.5349 -6.24636
1739 1 1 15.9702 13.9844 42.8094 9.08024 -9.77045 81.7143
3631 1 1 12.7838 12.5872 34.6547 70.2654 -17.2227 -30.9167
1511 1 6 20.7062 16.2065 33.2745 -41.7911 -8.35953 19.4847
2795 1 2 12.1055 12.6667 42.0649 -700.463 -114.374 -128.004
3634 1 1 13.0601 12.1842 33.3307 -10.694 10.8895 11.0145
2864 1 2 16.2559 15.4931 37.3644 -10.5417 9.11377 -13.3337
5129 1 1 12.8418 17.5414 40.1446 21.8423 6.91723 -16.6848
2634 1 1 19.0174 14.0908 39.7891 -22.6974 -11.3869 2.16482
5126 1 1 11.4102 17.9845 37.7529 -966.397 -261.185 -166.297
2633 1 1 18.5285 13.472 38.6159 -11.627 -39.0613 38.6766
3636 1 2 13.6211 12.9504 35.3034 -17.3722 -0.508844 -20.2827
4131 1 10 19.2192 12.4741 35.4683 -3.44744 16.506 -5.9933
2636 1 1 18.7768 13.9972 37.362 8.6781 35.1805 -45.5232
2637 1 1 19.4234 15.2808 37.2493 -26.7641 -25.9816 25.9989
2638 1 1 19.7531 15.9793 38.4144 32.1574 -2.99714 47.3405
2860 1 1 15.3011 17.6656 34.8983 19.8429 30.7314 -26.0793
3641 1 4 11.8107 13.5374 37.1081 12.8914 17.0843 21.5373
2862 1 1 13.4464 16.1929 35.4539 25.9733 18.0258 9.38615
5133 1 2 13.5525 17.2943 41.0158 -32.1297 8.16119 -27.317
2645 1 6 17.3356 13.2893 35.9964 6.9518 -10.8148 4.9314
5647 1 2 20.4585 13.3404 42.8727 -4.00908 -24.0043 -16.3467
974 1 2 19.2294 18.0556 40.7632 10.0339 6.92052 26.8601
2641 1 2 19.7662 15.8628 40.6154 14.5706 2.2312 0.996403
2865 1 2 13.8509 14.872 37.1258 -2.47955 -14.2063 2.0169
1745 1 2 16.5248 14.2857 41.9944 11.3246 4.72646 -37.6608
4130 1 2 20.1051 14.9016 34.4236 23.7258 -1.66389 -2.74571
5130 1 1 11.8527 16.5933 39.7468 -646.369 22.0446 -290.795
2861 1 1 13.9415 17.3175 34.7704 10.693 -13.1021 7.28793
2868 1 2 13.29 17.8472 34.0963 0.594421 4.08687 -10.1241
2644 1 2 19.5697 15.7903 36.3382 -2.74021 -1.25401 -24.3325
2640 1 2 18.7798 13.7125 40.8031 1.88417 1.80853 -20.5433
3640 1 12 11.3803 12.5048 36.6836 -693.126 -218.176 230.019
2857 1 1 16.147 17.003 35.771 18.8445 -30.6068 35.8958
6040 1 10 21.4239 17.6734 37.4328 -44.9644 -55.8223 28.87
1744 1 2 13.9982 14.1876 41.9976 -0.341896 12.2954 -17.9522
2866 1 11 12.1828 15.7311 35.103 -49.53 -14.4445 -14.5555
2859 1 1 14.2506 15.6285 36.4735 -5.26612 -0.0651179 -6.27469
2923 1 11 15.0897 13.6596 33.1637 12.9485 -33.9965 -19.7361
2646 1 6 20.3507 17.8215 39.1126 -18.9002 34.2242 59.3478
5940 1 4 12.3778 15.8187 32.8051 17.0829 2.17018 -34.1356
1738 1 1 14.5767 14.0195 42.8705 12.0072 -4.59918 -23.1075
5139 1 4 11.8675 15.4634 41.8861 11.9943 1.01882 -43.8593
2925 1 6 14.6766 14.2441 33.8559 -10.5437 -1.0828 10.7877
4126 1 1 20.9778 14.2301 34.5951 -39.211 -52.5812 23.1874
3438 1 2 12.8838 11.4464 38.7361 -1.56397 -1.43711 -5.33358
2870 1 6 11.4845 15.606 35.8688 20.944 3.62166 -15.7022
5936 1 10 11.6989 15.66 33.7716 -799.711 -79.8036 22.4286
4135 1 4 18.7974 11.4285 35.0174 -0.524324 -0.817043 -9.48765
5135 1 10 11.5812 15.397 40.6755 -616.974 -330.043 -119.738
1743 1 2 12.8052 13.7862 43.9484 5.85546 -8.32453 13.5832
2466 1 1 14.4722 17.1868 44.2803 -32.686 36.2566 -1.93701
1742 1 1 16.6726 13.7059 44.0354 -0.0576034 15.6102 -4.47407
2473 1 2 15.7183 15.984 45.4165 -5.98544 -2.9934 22.8526
5642 1 1 20.2857 14.7929 44.3918 30.4266 47.5403 24.3696
2465 1 1 13.2668 17.9611 44.2695 34.715 -12.682 -51.6483
1741 1 1 15.9924 13.3837 45.2068 -6.61828 -22.2839 -21.46
1740 1 1 14.6024 13.2344 45.1605 -30.2638 27.0997 -11.2145
1737 1 1 13.8956 13.7067 44.0189 -4.31113 -16.8902 18.1386
1746 1 11 18.0829 13.8199 44.0881 10.0712 16.6695 -32.426
5652 1 10 18.9775 14.3683 45.0031 -31.32 -6.52047 40.6372
5643 1 1 20.9172 15.9958 44.8872 -51.6979 -30.8962 45.4365
2467 1 1 14.7713 16.5242 45.4875 42.936 -8.18786 -78.7725
2468 1 1 12.467 18.0596 45.3803 -20.3987 -31.4224 7.32011
3760 1 4 20.5401 11.3945 44.1871 -25.4467 -26.8201 14.7205
5641 1 1 20.9237 14.157 43.3193 28.3581 51.0717 -22.3683
2472 1 2 15.1448 17.2473 43.3731 -12.5743 -12.6416 28.7169
1750 1 6 18.3865 14.0372 43.1612 13.0392 -13.2678 -10.6748
975 1 2 21.4184 18.3832 41.8467 6.82451 -0.557573 9.26018
6326 1 10 19.505 21.073 34.7402 -7.0302 -23.7205 -11.579
2099 1 6 14.7959 19.5836 37.7759 0.0493963 15.4253 39.6044
5138 1 4 14.3645 20.0377 40.8512 2.98204 1.246 40.5905
2087 1 1 17.2868 19.5311 38.0977 -9.21441 27.0132 18.5232
2088 1 1 18.6032 19.9036 37.8905 -0.243684 52.1217 24.936
6330 1 4 18.7198 20.148 34.7053 2.74048 -13.4087 8.17488
2090 1 1 16.4017 20.3892 38.7949 -16.0277 -35.0783 -15.8757
6324 1 2 17.076 21.7911 35.2747 -20.3292 -11.5103 9.10202
5131 1 2 12.5618 19.7185 37.5348 5.49106 13.2438 -7.38849
2093 1 2 16.9153 18.6525 37.6781 -9.18273 -24.6198 -12.6792
2094 1 2 19.263 19.3735 37.2911 8.94782 -23.1783 -17.6033
2097 1 11 15.0064 20.0119 38.7283 27.6474 -8.7275 -62.6056
2095 1 2 20.0529 21.4387 38.2724 18.0991 -4.22979 -11.5402
5134 1 10 14.1603 19.6701 39.7384 -5.73384 -3.87041 -21.377
973 1 2 17.1605 18.5579 42.0518 5.79451 -6.92689 -1.66148
1508 1 11 20.4443 21.165 33.7407 -14.6155 55.5322 20.0795
5125 1 1 12.3474 18.9037 38.1804 -0.0593983 -4.34191 3.74209
4642 1 10 15.2483 19.9096 33.9031 -14.7678 20.3884 4.14123
5128 1 1 13.0709 18.7127 39.3486 -3.38376 -22.6673 41.7152
1510 1 2 20.8459 18.565 34.3231 -9.54688 -5.81408 -1.38282
968 1 1 19.2967 18.3828 41.8411 4.83605 -16.6146 -52.9865
1503 1 1 21.0676 18.8301 33.2977 7.10153 -10.7452 2.50185
2869 1 6 16.4431 18.3888 33.3132 7.49852 -6.693 -5.83877
2867 1 11 15.8769 18.6972 34.0787 -18.4071 -6.36288 -3.82946
2089 1 1 19.0537 21.131 38.4424 -19.0511 10.1988 32.4016
1504 1 1 20.8994 20.1703 32.8894 11.5385 -13.6017 13.1769
4646 1 4 14.4362 20.3128 34.7016 -4.28102 -0.0100772 11.8274
969 1 1 20.5342 18.5894 42.4339 -6.90335 7.81347 31.7318