LAMMPS data file via write_data, version 29 Oct 2020, timestep = 212

6760 atoms
14 atom types
7190 bonds
18 bond types
11150 angles
23 angle types
19517 dihedrals
42 dihedral types

11.246593 53.753407 xlo xhi
11.246593 53.753407 ylo yhi
1.27354 64.665814 zlo zhi

Masses

1 12.01
2 1.008
3 12.01
4 16
5 14.01
6 1.008
7 16
8 14.01
9 1.008
10 12.01
11 14.01
12 12.01
13 1.008
14 16

Pair Coeffs # lj/cut/coul/long/omp

1 0.086 3.39967
2 0.015 2.59964
3 0.086 3.39967
4 0.21 2.95992
5 0.17 3.25
6 0.0157 1.06908
7 0.2104 3.06647
8 0.17 3.25
9 0 0
10 0.086 3.39967
11 0.17 3.25
12 0.086 3.39967
13 0.0157 1.06908
14 0.2104 3.06647

Atoms # full

4280 1 1 0.0839 13.474059448183024 19.0262961074443 12.845050610371636 0 0 0
2226 1 6 -0.0531 15.622357315311563 18.39113351983292 13.978627215987206 0 0 0
4285 1 12 -0.2763 13.412052086740344 18.461353148703527 14.214490840616724 0 0 0
4277 1 1 -0.0632 12.391401434544886 18.80615285292026 11.994348158957546 0 0 0
5389 1 1 0.0866 11.773183265252303 13.878649945421298 14.504820339701435 0 0 0
5388 1 1 0.0277 12.896176794649874 12.275714261347378 16.53361441292542 0 0 0
2221 1 2 0.0871 14.473554022705205 15.333314996116286 13.92735956813941 0 0 0
5190 1 4 0.2765 18.008219901144486 19.130782111558815 13.600477242597346 0 0 0
4279 1 1 0.2266 14.462700814727405 19.98210015576358 12.520202227352588 0 0 0
2213 1 1 -0.0531 17.122850763315462 14.131971091985395 15.709032266187219 0 0 0
4289 1 4 0.0866 12.802632987233961 17.46423865515739 14.561169225340441 0 0 0
2216 1 1 0.1829 17.77351442008057 15.349254750291399 15.96564572761324 0 0 0
2217 1 1 0.0839 17.26413081421619 16.54737687973991 15.468583712562042 0 0 0
2218 1 1 -0.0632 16.116320672535874 16.511360461034236 14.667980251751228 0 0 0
2222 1 8 -0.0801 15.938634131183896 17.4808272134792 13.680175873546247 0 0 0
2224 1 2 -0.2763 17.91388642944476 17.416295898235898 15.49808103899414 0 0 0
4282 1 2 -0.0521 11.678544419342577 18.01677716736963 12.221689143117047 0 0 0
5387 1 1 0.0872 13.030939650793078 11.899518474021669 15.18666608521605 0 0 0
2215 1 1 0.1829 15.364217523072131 15.338699406639835 14.549990712154152 0 0 0
5386 1 1 -0.2763 12.417414991315667 12.666553514174215 14.173012867622441 0 0 0
4278 1 1 0.0872 14.265657735824165 20.866828947747983 11.455483980318162 0 0 0
2220 1 2 0.2765 15.372760667704823 13.20780391209527 14.800748149869898 0 0 0
2219 1 2 0.0872 17.584100554818537 13.201197484692617 16.02056483155405 0 0 0
4283 1 2 -0.2514 15.347131256087707 20.100630895079856 13.138247432513374 0 0 0
5392 1 2 0.0586 12.449763460930592 12.330411657151739 13.139375918618546 0 0 0
2214 1 1 -0.0531 15.899424093108422 14.130770666148031 15.016722731403423 0 0 0
5391 1 1 -0.2415 12.237724306101134 13.461395217719742 16.88550007261097 0 0 0
5390 1 1 -0.043 11.686695034229981 14.261984225443488 15.86097359856937 0 0 0
4276 1 1 0.1829 12.158165145232724 19.707689018304272 10.948909777512405 0 0 0
4275 1 1 0.0866 13.089229168996225 20.741837568416944 10.696245098601974 0 0 0
4281 1 2 0.0078 12.874366949485607 21.484889215594798 9.937307479142532 0 0 0
6641 1 6 0.157 15.615067076039344 18.39533890861275 14.023642804993347 0 0 0
6642 1 7 -0.2415 14.082486471846986 19.242797699442804 15.078103346937707 0 0 0
6710 1 7 -0.2415 11.859614459554551 14.782587712156493 12.259922019418573 0 0 0
5186 1 12 -0.2514 18.108206514001353 20.288329178420188 13.28129696880742 0 0 0
6656 1 7 -0.2415 17.867339734305656 20.69614216387391 12.011699744757571 0 0 0
137 1 8 0.0277 20.508088545491685 19.347885479339872 12.005104960135863 0 0 0
1407 1 2 0.0278 20.556623658040806 14.639582572469555 12.014510749888839 0 0 0
139 1 6 -0.0801 19.668859730352555 19.119143217813615 12.503048408283176 0 0 0
1402 1 1 0.0839 21.10591498952872 16.25048903215618 13.34886199167102 0 0 0
5180 1 1 -0.0632 18.751992265576195 20.92190954094106 15.623951918939493 0 0 0
2223 1 11 -0.2763 19.04454997644495 15.356154686054028 16.558798485080125 0 0 0
6308 1 2 0.0078 21.460604424084103 15.812080433488399 16.444084937017834 0 0 0
130 1 1 -0.0801 20.741347393138124 20.715179354616506 11.734656333141045 0 0 0
138 1 2 -0.2514 21.307036545628588 21.205515697740676 13.73447737168163 0 0 0
2225 1 6 0.1829 19.769280189742165 15.811041407333596 16.021580236026377 0 0 0
5181 1 1 0.0278 18.514549571675598 21.310268405240965 14.286356949619908 0 0 0
5184 1 2 -0.2514 18.90938938075619 19.870467888290126 15.875323082981943 0 0 0
1401 1 1 0.0896 21.246587051391636 14.971191671840286 12.787767095975559 0 0 0
511 1 2 0.3852 21.44826742279509 18.79672960110309 16.576595971542222 0 0 0
131 1 1 -0.0632 21.252099086035102 21.58063795412922 12.71434622684201 0 0 0
1408 1 2 0.1829 20.2756205669991 16.891376213086936 13.05107662982949 0 0 0
127 1 1 0.1829 20.49515905885471 21.21000803338296 10.446846305019621 0 0 0
133 1 2 -0.0632 19.96341369937104 20.600066586636252 9.723140892320371 0 0 0
1413 1 6 0.0866 23.75722542736275 13.076595826121668 12.02302865293215 0 0 0
515 1 11 0.0866 23.923283618151515 19.56791850142653 15.722355078024137 0 0 0
6312 1 10 -0.0632 24.17829190735539 16.29828844545629 17.012174148308368 0 0 0
1410 1 11 0.2266 24.081498850610405 16.35456500493648 15.624603740264297 0 0 0
1406 1 1 0.0871 23.106149870049236 15.87555108640939 14.708741195160572 0 0 0
508 1 1 0.0873 23.371379861255623 19.758981964659192 17.03457782096575 0 0 0
1414 1 6 0.0872 24.920854386705386 16.685184368727622 15.167945970769422 0 0 0
4159 1 1 -0.2514 25.03321167478341 19.122737706516787 11.505632120341291 0 0 0
517 1 6 -0.0632 23.233738235808687 19.514311611158078 14.980016441439735 0 0 0
1405 1 1 0.04 23.248169190306086 14.601755340566834 14.13098255076353 0 0 0
4160 1 1 0.0839 24.649838868776012 19.151589497800764 12.857763218091641 0 0 0
1412 1 2 0.0866 24.101365449896736 13.984545345050321 14.402695889470118 0 0 0
2514 1 2 -0.2763 24.76163316294872 13.555527772632894 16.942774003310507 0 0 0
4166 1 10 -0.2514 25.266834612792564 19.605855711848417 15.3231649074974 0 0 0
1411 1 8 0.1829 22.788988422818683 13.203997377863907 12.18442546062429 0 0 0
4164 1 2 0.0866 23.594033095153762 19.286284738884298 13.08855588208285 0 0 0
1409 1 2 0.0872 22.013752713168916 17.74443063527057 14.607362655534315 0 0 0
1403 1 1 -0.0632 22.07906437169818 16.72303432443196 14.246815512432988 0 0 0
1404 1 1 -0.0521 22.38295840797158 14.200192173312642 13.093165694952777 0 0 0
4165 1 12 0.0866 24.183805033252288 19.914887210429484 10.585568592968784 0 0 0
4169 1 4 -0.0521 23.0611669062173 19.569417939017267 10.279382276570043 0 0 0
6655 1 6 0.157 19.637804166115703 19.161945848121515 12.516255246769607 0 0 0
6658 1 7 -0.2415 23.777225182873607 21.689127464894234 13.893555032664981 0 0 0
6691 1 6 0.157 23.821833122885444 13.163143247000756 12.097379008072483 0 0 0
6646 1 7 -0.2415 24.52728163586524 21.224333211437703 10.653753524475107 0 0 0
705 1 1 0.0896 29.019447714430008 18.348276927713133 17.10620414069831 0 0 0
657 1 6 0.2266 32.402771638011586 13.57170909350025 15.143878418444661 0 0 0
4161 1 1 -0.0632 25.62053980228476 19.37505342978544 13.857569224045037 0 0 0
713 1 6 0.0078 30.0866589676555 15.23408290295941 16.538657940772165 0 0 0
4551 1 1 0.0874 30.098083308357896 13.960882023291772 14.530662061123119 0 0 0
4560 1 4 0.0872 27.551553070865005 16.46375991513713 15.130983360518401 0 0 0
4172 1 9 -0.2514 29.076842473442156 20.33976811594281 13.306999640161749 0 0 0
712 1 2 -0.0531 28.158968261582068 18.454398193876816 16.457094669259053 0 0 0
4557 1 10 -0.2514 31.77254733680549 12.157659263390316 13.812817246047416 0 0 0
2515 1 2 0.2266 25.975677354713888 12.041374570566358 15.622121265397306 0 0 0
4559 1 4 0.157 25.88370993744434 12.568615645053717 12.06175871774423 0 0 0
2509 1 1 0.0896 26.461050023795437 12.425249096306908 16.50924119218726 0 0 0
4158 1 1 0.2266 26.95895525059669 19.55786399261706 13.433667826171147 0 0 0
4163 1 2 -0.0632 27.70024596247953 19.84981950676134 14.16837894337047 0 0 0
714 1 6 -0.043 28.451128892859423 21.019962836772258 16.980021850919176 0 0 0
4157 1 1 0.0078 27.353471666817022 19.38024360277246 12.089616373283182 0 0 0
4170 1 4 0.2886 26.1201132424849 20.01458221936674 16.08933960850043 0 0 0
4558 1 12 -0.379 27.011558026725076 12.118021769993069 12.138825112338871 0 0 0
4549 1 1 0.2765 29.438141357064623 12.337922395692239 12.865158160817694 0 0 0
4552 1 1 -0.0483 30.4352873543949 12.866188207048761 13.704606469409951 0 0 0
4547 1 1 0.0587 27.79236289126184 13.885049449425958 13.771289220762508 0 0 0
4550 1 1 -0.2623 28.78283561334513 14.481449918933004 14.577203426019686 0 0 0
4556 1 10 -0.0801 28.47164880383333 15.71104092501129 15.410655693321214 0 0 0
4554 1 2 -0.2514 29.655578181671736 11.438670339901941 12.287047357096158 0 0 0
4555 1 2 -0.043 30.859108821442028 14.390447281613636 15.171618052150576 0 0 0
4548 1 1 0.2765 28.112776437852 12.8210593539333 12.901432337719971 0 0 0
4167 1 12 0.1829 28.75727749713991 19.619601760060863 11.606829400793874 0 0 0
4171 1 7 0.2266 29.609756975086906 20.119556180341053 12.524819311296971 0 0 0
4553 1 2 -0.2763 26.75497746468474 14.202195634728875 13.86910885428304 0 0 0
711 1 11 0.1829 29.398242398514178 15.965923529842046 16.417753071581863 0 0 0
2512 1 1 0.0839 27.762013855384094 12.064147752176257 16.875223474162084 0 0 0
4162 1 2 -0.2623 26.657884021755557 19.02626821454375 10.092494254651942 0 0 0
4168 1 4 -0.0632 29.105770381275068 19.49361422290994 10.443944892467975 0 0 0
4156 1 1 0.0078 26.38120000649075 19.056806939149723 11.142739618483587 0 0 0
6482 1 1 -0.0531 14.535973216045264 16.780514279722993 21.72832232363561 0 0 0
6483 1 1 0.2266 14.636868616131705 15.392812151145097 21.505390698485137 0 0 0
6488 1 2 -0.0801 13.735633183354878 14.789909132169631 21.415845623493546 0 0 0
2456 1 1 -0.2415 11.603102444238345 18.31767234788138 17.517097984273203 0 0 0
6315 1 4 0.0839 18.302313155797556 15.300869368066909 18.70789395433391 0 0 0
49 1 2 -0.0092 12.70111928279925 20.916694044436078 20.21910567536639 0 0 0
293 1 6 0.2266 17.99943355995594 13.449356522273208 20.82939538843198 0 0 0
2451 1 1 -0.2415 13.835596256909326 16.80606193714416 18.392818560797284 0 0 0
2457 1 2 -0.2763 14.670936423471524 16.21336715202946 18.793364639541505 0 0 0
2458 1 2 -0.379 15.002163753740097 18.580379640168317 17.964120279277346 0 0 0
5400 1 4 0.157 11.986661186851816 12.79777504468007 19.12159797162059 0 0 0
5393 1 2 -0.2763 13.340673860200967 11.666452196186771 17.328386344069404 0 0 0
6491 1 10 -0.2763 15.967217409568898 13.252351501194012 21.060757693232308 0 0 0
2452 1 1 -0.0632 13.99835648783002 18.147413486647785 17.97768926630345 0 0 0
6493 1 4 0.0277 12.135121001622684 16.825415956952998 21.75644915732956 0 0 0
291 1 11 0.0896 17.23611245592613 12.774270903242366 20.721913977205553 0 0 0
2453 1 1 -0.0801 12.867406156584194 18.909316468568047 17.580672620698422 0 0 0
43 1 1 0.0896 12.0043795364094 20.830777008694202 21.045747386072048 0 0 0
2454 1 1 0.0077 12.553703707594298 16.234326796091974 18.341271795976827 0 0 0
5396 1 10 0.0078 12.093811947536048 13.735778313973539 18.360830127295024 0 0 0
2463 1 6 -0.043 12.436245273374622 14.970412502777952 19.93544586510051 0 0 0
2461 1 11 0.0078 12.346932671501468 14.972650625865517 18.925864388865875 0 0 0
284 1 1 -0.0632 17.568347170914976 11.564155122217255 20.01731573114354 0 0 0
6492 1 10 0.0871 13.175818181564294 17.45906290935763 21.775415309351054 0 0 0
6486 1 1 0.1829 15.88644015478435 14.73652036740268 21.42531620798424 0 0 0
2455 1 1 -0.0645 11.444891253671493 16.98365713345775 17.911259498558664 0 0 0
6495 1 4 0.2266 14.953498019614788 12.624544286682466 20.813002549845223 0 0 0
6481 1 1 -0.0632 15.732757577070531 17.503277325354837 21.921638349404557 0 0 0
55 1 6 -0.0483 14.045745264310481 19.29999108918706 21.5932762276142 0 0 0
53 1 11 -0.2763 13.169483204247376 18.846234236684406 21.81234309202721 0 0 0
6485 1 1 0.1829 17.05363217349908 15.479204870531612 21.689375530764906 0 0 0
1050 1 6 0.0872 13.618256976225403 12.489691648850332 23.48817335485345 0 0 0
2496 1 1 -0.2514 15.299376375592244 20.386134503998672 24.990790975103803 0 0 0
6518 1 2 0.0871 12.270401530231265 13.19621284842033 22.579728713983254 0 0 0
1041 1 1 0.0872 16.56326171970589 12.78749544532093 24.837264258734066 0 0 0
1048 1 2 -0.043 16.74029186156146 13.797044640045558 24.485433946374247 0 0 0
2502 1 11 -0.0801 18.19428225462295 18.58557142308397 23.38382141737575 0 0 0
6521 1 10 0.0866 13.836750079562778 14.221289923925239 24.581909002252083 0 0 0
6487 1 2 -0.0531 15.688700738011278 18.57432982447082 22.06486338824951 0 0 0
6516 1 1 0.0866 12.487923248673985 14.692582607496067 24.101042507804756 0 0 0
2498 1 1 -0.0632 17.098799452714868 18.895766492214896 24.24154724483376 0 0 0
6515 1 1 0.0872 11.84604617416708 15.73736368200888 24.770801802114956 0 0 0
1042 1 1 -0.043 15.300890178465805 12.202181252637807 24.643011415488644 0 0 0
2503 1 11 -0.0645 14.523952631691733 21.57464282356644 24.8847267768953 0 0 0
46 1 1 -0.0632 12.073390394082063 19.740208217819227 21.929677596821683 0 0 0
2504 1 2 -0.0632 16.860644614915852 20.935389777551023 23.578557832818294 0 0 0
2497 1 1 -0.2514 16.47633824748433 20.163958262711752 24.23869288682778 0 0 0
1046 1 11 -0.0632 14.234397559193345 12.971469453157843 24.126525986376617 0 0 0
6490 1 10 0.0078 18.24814911893142 17.60576819510652 22.380862306152917 0 0 0
6484 1 1 0.0866 16.988290352380005 16.86070998273783 21.985293119824643 0 0 0
6513 1 1 0.2765 11.779583690806465 14.001686381257576 23.1078953495629 0 0 0
6489 1 2 -0.2763 17.99596556237772 14.920328126863545 21.69818440057591 0 0 0
2459 1 2 -0.2415 12.936750395537759 19.948895355098525 17.251439669521275 0 0 0
6305 1 1 -0.2415 20.969654403017547 15.18439756922045 19.73200406123366 0 0 0
287 1 2 -0.0531 18.985349138142368 12.58963390936005 18.73932630580994 0 0 0
281 1 1 0.1829 18.535674413638265 11.637618701269588 18.99908356826186 0 0 0
6309 1 2 0.0078 20.163448138965368 14.994508585147663 20.436907659507302 0 0 0
6306 1 1 0.0866 20.672681186539158 15.388354570231693 18.376260501928865 0 0 0
5189 1 4 -0.0521 18.41283380653897 20.62417473244171 18.592092413748976 0 0 0
1373 1 1 -0.0632 20.059361835540386 21.299270786323206 20.97540504407982 0 0 0
512 1 2 -0.0521 20.766273969445326 18.552731325984034 18.877072769463677 0 0 0
6303 1 1 -0.2514 21.724642701943694 15.633792381220612 17.46458999238234 0 0 0
6311 1 10 0.0866 19.237858486299583 15.358204196683255 17.925141987768754 0 0 0
506 1 1 0.0839 21.69756781581943 19.06359535480127 18.65880564063848 0 0 0
5185 1 10 0.2886 19.036666494131325 21.529800939483792 18.06868951323993 0 0 0
1379 1 2 -0.2514 19.531493268929374 20.433417625335743 20.628259392896567 0 0 0
1490 1 1 0.2266 21.876543642581858 12.796629088178147 21.595456233908713 0 0 0
2506 1 6 -0.2514 19.08279437509048 18.980652916129877 23.690651362081205 0 0 0
1496 1 2 0.04 20.431368756306842 12.420999946368191 23.162850901190307 0 0 0
1489 1 1 0.2266 20.885192397272533 12.04069626928197 22.250819874080722 0 0 0
1374 1 1 0.0866 20.42649802246199 21.32853214111232 22.322825588424585 0 0 0
1380 1 2 0.1829 20.14492594397026 20.483405958315295 22.95144663412834 0 0 0
6494 1 4 -0.2763 19.326156003173054 17.253671884797168 21.930082504219264 0 0 0
516 1 2 -0.0801 24.94815487476493 21.028429596949135 17.847345242490274 0 0 0
6301 1 1 -0.2514 23.306994679563005 15.650257734932728 19.284043544958987 0 0 0
514 1 11 0.0872 24.263614529498327 21.11899016044407 20.433218742251388 0 0 0
6304 1 1 -0.0496 22.28448826594832 15.332786686091412 20.202214140877302 0 0 0
6310 1 10 -0.0632 22.6087588044309 15.179191648915607 21.6703740526592 0 0 0
6387 1 10 -0.2514 24.597210631416143 20.648601250586875 21.707117761480422 0 0 0
513 1 2 0.0872 22.12454625576616 19.50465587898582 20.71201534679545 0 0 0
6313 1 4 -0.043 25.21529537511437 16.700527327615983 17.513135916728046 0 0 0
507 1 1 -0.2763 22.47279262367005 19.606717289833757 19.688130006641455 0 0 0
509 1 1 0.0896 24.058070921278777 20.44830993655235 18.066771834323067 0 0 0
1493 1 2 -0.0531 23.28453219759177 12.84328287393316 19.93854470001902 0 0 0
6307 1 2 -0.0645 24.297639188431397 15.839666284211363 19.67984318987847 0 0 0
1487 1 1 0.0277 22.483915634443065 12.294323565785184 20.42929040161992 0 0 0
510 1 1 0.0278 23.620325880915267 20.367818228733814 19.401387396314075 0 0 0
6302 1 1 -0.0531 23.05159053817625 15.807303968913601 17.90372406437978 0 0 0
505 1 1 -0.2514 22.12078393423706 19.1808018104955 17.333038438888433 0 0 0
1494 1 11 -0.2623 22.44737095830054 13.915995930423254 22.235615247515415 0 0 0
848 1 2 0.3852 24.52368731785873 13.168525042725486 23.297408066254988 0 0 0
6383 1 2 0.0078 25.046824860447593 20.18547646947561 24.369192112572364 0 0 0
1498 1 6 -0.2514 22.925545518105174 13.699559588121769 23.11539769475197 0 0 0
6378 1 1 -0.2763 24.80873711825421 21.225611864867094 24.17326977830501 0 0 0
6377 1 1 -0.2763 24.67336333700971 21.65676917810868 22.831078253766446 0 0 0
6314 1 4 -0.0801 23.16175967517414 16.07437287218565 22.28483869947343 0 0 0
1071 1 2 0.0078 22.159547878776756 19.832003424512195 24.764728086430765 0 0 0
6388 1 4 -0.0632 24.600886028412127 19.453816085843076 21.950753295219094 0 0 0
5921 1 10 0.0078 28.01125714399676 21.177687542672118 18.982698450990775 0 0 0
704 1 1 0.0278 29.682536760444414 17.109785028233528 17.21430530207353 0 0 0
706 1 1 0.0866 29.45743020239383 19.45296543502653 17.86274243873627 0 0 0
710 1 11 0.0839 28.66272081474851 20.624419739153492 17.888673991140042 0 0 0
707 1 2 -0.0531 31.28496874200365 16.035762386373 18.185162003618924 0 0 0
5913 1 1 -0.2514 28.238525101367735 21.353265234180828 21.463466567176795 0 0 0
709 1 2 0.0078 30.992287885079953 20.206139375405687 19.204080215230405 0 0 0
2517 1 11 -0.0801 28.020821925498197 13.604888570398343 20.261191240905465 0 0 0
5915 1 1 -0.0801 27.96815207419584 19.141873408938654 20.510819885946095 0 0 0
5919 1 2 0.0078 27.848118998335675 18.506472157647295 19.64073115848916 0 0 0
5916 1 1 -0.0632 28.13723132387246 20.526833291034727 20.333323150832673 0 0 0
702 1 1 0.0871 31.281808086422693 18.11859432226882 18.760812059914066 0 0 0
2508 1 1 0.157 25.744644768685657 13.316484746903999 17.304351872536202 0 0 0
703 1 1 -0.0531 30.621345204021516 19.34917627362894 18.6487612787621 0 0 0
5914 1 1 -0.2763 27.840035196458665 18.582195462465947 21.796602513330562 0 0 0
3501 1 2 0.2266 32.04246304767484 14.666111976093585 21.650002753350332 0 0 0
701 1 1 0.0866 30.78369730270768 16.996268901016787 18.081467455782654 0 0 0
2518 1 2 -0.2763 29.292141664573855 12.193504184904635 18.34980051366401 0 0 0
2519 1 6 0.2266 28.02503932716045 14.577713183790028 20.558766875402117 0 0 0
2507 1 1 0.0896 26.27725503987843 13.817649839132958 18.50955705966949 0 0 0
2513 1 2 0.2266 25.672387763147498 14.47472374230288 19.130583219654827 0 0 0
2510 1 1 0.3852 27.55057072566277 13.380681459723975 18.933562461140056 0 0 0
2511 1 1 0.1829 28.31116048790112 12.568060515495691 18.06231565335023 0 0 0
6595 1 10 -0.0632 28.56251819667339 12.706419056917998 21.18889863436439 0 0 0
5924 1 4 0.1829 27.410562902634776 16.429184400648918 20.92582231765059 0 0 0
3506 1 4 0.1829 31.7475870072079 13.141136099337201 19.39763342848001 0 0 0
656 1 2 0.0078 32.11865400067293 12.510634105263309 17.19898183827635 0 0 0
708 1 2 0.0896 32.17491974527499 18.03266720941343 19.37374796458702 0 0 0
844 1 1 0.0872 27.19600384137585 15.249401961300903 23.569229696835997 0 0 0
5911 1 1 0.0278 27.741309263633084 19.464570519151636 22.900776656311745 0 0 0
2981 1 6 -0.379 31.398462728174348 15.789873081150448 22.767189173806567 0 0 0
2971 1 1 -0.2763 31.1498998499585 20.307005275602673 24.30664793873785 0 0 0
846 1 1 -0.0632 27.528497305269983 13.303901628340963 25.012966222984286 0 0 0
842 1 1 0.0279 25.539767418710273 13.461168343937858 23.594905388646733 0 0 0
853 1 6 0.0586 27.733346289027953 17.206622095063626 23.962655496114387 0 0 0
5920 1 10 -0.379 27.666350963698342 17.088541171277704 21.913892033706595 0 0 0
841 1 1 -0.0632 26.04212460558085 14.643445738486065 23.042521672781493 0 0 0
2979 1 11 -0.379 31.762891996160402 16.14244287009266 23.64607270733491 0 0 0
845 1 1 0.0839 27.91832558734624 14.588657513640408 24.57557637921358 0 0 0
2970 1 1 0.3852 30.992384461588586 19.75271045869812 23.018479853303607 0 0 0
2969 1 1 -0.0632 31.194002175888862 18.372556758678023 22.833642993666412 0 0 0
852 1 2 0.0896 28.80541922707009 15.065243877946779 24.976783380653334 0 0 0
5917 1 2 0.0078 27.4946720407269 19.06195389865743 23.87706312207422 0 0 0
6599 1 4 -0.3506 29.125791392818844 13.154691383142927 22.166604275209647 0 0 0
851 1 11 -0.0632 27.57582255165435 16.56671836506528 23.194962999558186 0 0 0
5912 1 1 0.0277 28.002403837728718 20.851691592431614 22.7579527272548 0 0 0
2972 1 1 0.2886 31.539187600964755 17.539589595713906 23.91090718704559 0 0 0
847 1 2 -0.0507 25.471546233943986 15.12929926296956 22.26503810753001 0 0 0
849 1 2 0.0896 25.987951242921707 11.79314479752621 24.917199340145565 0 0 0
843 1 1 -0.0645 26.324327119022424 12.74954762923781 24.53121467398661 0 0 0
2977 1 2 0.0839 31.008279375602193 21.37797880177376 24.4416181285989 0 0 0
2976 1 2 0.0872 30.735125324532046 20.38800782172711 22.173098799404233 0 0 0
2975 1 2 0.0866 31.082791222560708 17.939787334671266 21.846730251026987 0 0 0
5922 1 10 0.0866 28.154290833463605 21.78232265852361 23.949028997685105 0 0 0
3497 1 1 -0.0531 32.44087815965281 13.786707101399472 22.169378984246688 0 0 0
2723 1 2 0.2765 11.723688444248797 11.312616532798105 28.97834025399363 0 1 0
6234 1 2 0.3852 14.921139341015747 12.620811405671782 28.87199322164573 0 0 0
6239 1 4 -0.0632 12.81788841974005 15.912814951342815 28.64184211864902 0 0 0
2495 1 1 0.2886 16.61597188859296 17.901218139566804 25.100743366207396 0 0 0
2501 1 2 0.0866 17.123571583350984 16.94572428605282 25.152146847987076 0 0 0
4636 1 1 -0.0632 14.040412368087843 20.85438795912197 31.93134687962776 0 0 0
2729 1 6 -0.2763 13.319958575824584 12.83505770254648 29.17563703840995 0 0 0
1040 1 1 0.0277 17.582375253670747 12.044924781004134 25.451733373284284 0 0 0
6235 1 10 -0.043 13.388529060509368 14.85653906013591 28.851131902652714 0 0 0
2500 1 2 -0.3506 15.157416008574904 17.387587310312828 26.629778012710872 0 0 0
2494 1 1 -0.0091 15.50072917613039 18.140940727896925 25.920726421420763 0 0 0
2493 1 1 -0.0801 14.822451220614205 19.364213303900186 25.83173331832655 0 0 0
6237 1 10 -0.0531 17.826220761823706 17.151871149427237 28.505781464504217 0 0 0
4635 1 1 0.0872 14.005496669286092 21.25382591398266 30.58200889587744 0 0 0
2894 1 11 -0.2415 11.802106032648885 20.213501566153145 30.269514270856597 0 0 0
2914 1 1 -0.0507 17.575276583680672 16.13150850576704 32.026346078195715 0 0 0
6230 1 1 0.0078 15.534586643984513 13.513820353286674 28.85406629870951 0 0 0
6525 1 4 -0.0801 14.436163508325622 14.79128924631435 25.478939850888995 0 0 0
2499 1 2 0.0866 13.907208226449454 19.499024399959524 26.395282433635675 0 0 0
4632 1 1 0.0866 15.214849869119053 21.58603273639723 29.94088511423046 0 0 0
6238 1 4 0.2266 17.302298053654475 18.239607064577093 28.674471752113277 0 0 0
4634 1 1 0.0866 16.46846695324289 20.85245259331276 31.895503654369904 0 0 0
2913 1 1 -0.379 16.388277501367686 15.564909024447116 32.513091029335214 0 0 0
6228 1 1 -0.0531 17.696979455946018 14.609046501413628 28.76595189036251 0 0 0
4633 1 1 0.0896 16.450077341443205 21.352111926391448 30.578171969085382 0 0 0
2727 1 11 0.0277 12.72884890182774 13.668075628116393 29.1236306609344 0 0 0
2898 1 6 0.0077 12.01495302920461 19.784077035172768 31.16269684832144 0 0 0
6236 1 10 0.0078 17.63944754763407 12.102282808544489 29.014691920720598 0 0 0
6231 1 1 -0.2763 16.941194423581074 13.424615733385002 28.875418080015006 0 0 0
4641 1 10 -0.0801 12.752223004452636 21.094890978738178 29.758848299685802 0 0 0
4639 1 2 0.0587 17.416234310320267 20.64258148131186 32.38269565323443 0 0 0
6226 1 1 -0.0507 15.662165218846377 15.928500560277396 28.793414335390345 0 0 0
6227 1 1 0.0078 17.063169504314665 15.869657581517346 28.708895291711467 0 0 0
6229 1 1 -0.0092 14.887919292266405 14.760022225316964 28.833657987720485 0 0 0
6232 1 2 0.0896 15.16161446682596 16.890193606678764 28.759277474703453 0 0 0
6519 1 2 -0.2623 12.412993025012383 16.24783297355589 25.534667766450266 0 0 0
3643 1 4 0.0866 14.701350443078779 12.05112900558048 31.58153479674467 0 0 0
4645 1 4 0.1829 12.714413669801365 21.485927951918114 28.6029673381236 0 0 0
2896 1 2 0.0873 12.065078782486449 18.67822346710718 28.07232367258439 0 0 0
4643 1 12 -0.0632 17.746706907767535 21.505883566638566 29.839510154492494 0 0 0
2920 1 2 -0.0531 17.618894809077023 17.197381251290366 31.82212495238944 0 0 0
2720 1 1 0.0866 11.33967566685019 13.403880922963147 29.242667801379795 0 0 0
3639 1 10 -0.2763 14.362692546790944 12.575903095915496 32.62946161849334 0 0 0
2916 1 1 0.2266 16.3032281147022 14.172894541622258 32.700455880966494 0 0 0
4637 1 1 0.2266 15.2645979492665 20.60123175096528 32.57609557706055 0 0 0
5940 1 4 0.0839 12.428703060414103 15.75036350760038 32.79556192997005 0 0 0
3633 1 1 -0.043 12.114855527823686 11.457628970162915 32.59201751284753 0 0 0
2924 1 2 0.0896 17.370338108966767 12.292420633081615 32.6326262785892 0 0 0
2917 1 1 -0.0632 17.42722977613771 13.363843892855565 32.45411540146182 0 0 0
4640 1 2 0.0866 13.113054166256987 20.61000631075741 32.43937481742786 0 0 0
2919 1 2 0.0278 15.512850762893065 16.185322741659796 32.65916937247709 0 0 0
2505 1 6 0.1829 13.9288547839438 21.716149513112036 25.679079344684652 0 0 0
5678 1 2 0.0078 21.101166278763824 15.846788786420497 25.140774882999168 0 0 0
6233 1 2 0.0896 18.780675332726315 14.54055911630662 28.742951910375204 0 0 0
1067 1 1 0.0078 19.461995079308476 19.164045760447664 26.74138387892155 0 0 0
1507 1 2 -0.379 21.35013722301967 21.56641456104729 31.257772337426267 0 0 0
1070 1 1 0.2266 19.92831900949764 17.98195227429504 27.352340534109 0 0 0
1065 1 1 0.2266 21.55411062420987 19.333107927730666 25.516528174330602 0 0 0
6240 1 4 -0.2514 18.839143321230814 12.004707882186098 28.839139733700126 0 0 0
4828 1 10 0.2266 20.87337460735445 13.164272188277979 30.99743728654312 0 0 0
1074 1 11 0.0866 19.06616334208948 17.005522074835902 27.909305808775777 0 0 0
1078 1 6 0.0866 19.37169938332948 16.05706555321585 27.728162512620113 0 0 0
5681 1 10 -0.0632 19.4340188377563 13.753187098671662 25.587825216684898 0 0 0
5679 1 2 -0.2514 21.086926052036713 11.760151454248284 26.621834700159734 0 0 0
1049 1 6 -0.0632 19.579908356515467 11.710254782686674 25.656982841647675 0 0 0
2915 1 1 -0.2514 18.688454388666322 15.316090161261501 31.75710706733211 0 0 0
4644 1 4 -0.0802 18.769665624389834 20.951346672290533 30.19639477459867 0 0 0
1047 1 11 -0.2514 18.920659657971758 12.469428427813627 25.53169879638625 0 0 0
4832 1 4 0.2266 21.116150937705164 14.13545178540089 30.30481468072581 0 0 0
5676 1 1 -0.0531 20.907705650283066 13.81644771957675 25.860263964313994 0 0 0
5685 1 4 -0.0521 18.755096483562117 14.761067616618147 25.483922728029782 0 0 0
2921 1 2 0.0278 19.570637939799443 15.77371487718236 31.33140261453549 0 0 0
1073 1 2 -0.0521 18.443026061339577 19.509531441552543 26.889389223965768 0 0 0
2918 1 1 0.0277 18.62815302886872 13.92097869866251 31.977549475698545 0 0 0
1501 1 1 0.2886 21.4087870047548 20.527542356558744 31.57347626879468 0 0 0
1072 1 2 -0.0632 19.937264285932375 20.769084672872626 25.371467096083318 0 0 0
1076 1 2 -0.2514 21.624573992540718 16.72924448018364 27.75728589107177 0 0 0
1069 1 1 -0.2763 21.267782630050313 17.59331712761766 27.197456799367348 0 0 0
2922 1 11 0.0278 19.733785179324453 13.034981445414811 31.788820838162813 0 0 0
1066 1 1 -0.0632 20.29525423805039 19.86185407178994 25.852748572545813 0 0 0
5675 1 1 0.0078 21.58749530177582 12.70189615154508 26.39831142640686 0 0 0
5673 1 1 -0.0632 21.61887995298995 15.009852547645327 25.60203943596526 0 0 0
2926 1 6 -0.0496 19.671472284879016 12.190380669448144 32.34325846800025 0 0 0
1502 1 1 0.1829 21.579587181112046 17.840439781324108 32.3939204634117 0 0 0
1509 1 11 0.2765 21.506488516548103 16.50499288182844 32.8613287550491 0 0 0
1504 1 1 0.0078 20.974299875274937 20.159701926290094 32.86095558763559 0 0 0
6386 1 10 0.1829 24.333129589319725 21.600484105363442 26.680355733348325 0 0 0
6400 1 10 0.0866 25.26897992832002 15.640903849410773 29.494330629150603 0 0 0
1077 1 6 -0.2514 23.92804823396049 18.391882634990612 25.44131779446614 0 0 0
1068 1 1 0.0277 22.0330137803129 18.173487747100932 26.158422758968864 0 0 0
1922 1 1 -0.0521 25.157266883193866 18.10491841977932 29.95885475125942 0 0 0
1923 1 1 0.0278 25.080197612875494 18.61481945102892 28.647543989720326 0 0 0
1924 1 1 -0.2623 25.215455329852887 19.991523303727032 28.4025678695847 0 0 0
1929 1 11 -0.2514 24.800625172187466 16.75613769341131 30.181569083167428 0 0 0
1930 1 2 0.0866 24.845968618938617 17.94395699772814 27.827552909476466 0 0 0
1499 1 1 -0.0531 22.001873601004686 18.205327612310796 31.095525961554955 0 0 0
5672 1 1 0.0866 22.990201213130867 15.120651499202499 25.918354625715928 0 0 0
5684 1 4 0.0078 24.8254130421457 11.727398441885795 27.65196771722172 0 0 0
5680 1 10 0.1829 23.699877203286167 11.588678323747445 27.21186813149557 0 0 0
1928 1 11 -0.2763 25.088378233389268 20.50067279958167 27.07252658264388 0 0 0
5682 1 10 0.0277 23.820135507203435 16.364258633806593 25.663954332302275 0 0 0
4827 1 2 -0.2623 23.528087667250837 13.343984580028787 31.32648048533137 0 0 0
1931 1 6 -0.2763 23.870348918408613 16.669903166350036 30.602120477838895 0 0 0
4823 1 1 0.0871 23.23221375304667 12.305483397624187 31.228650963357918 0 0 0
5677 1 2 -0.2763 24.72562444423117 13.961314947506304 26.59074206185038 0 0 0
6404 1 4 -0.043 24.51781925325186 14.690164543386214 29.364367346547745 0 0 0
5671 1 1 0.0872 23.647677024540855 13.971040194741375 26.412473466744988 0 0 0
1506 1 2 0.0839 22.168547675272357 19.847921529756473 29.67707568223002 0 0 0