ITEM: TIMESTEP
0
ITEM: NUMBER OF ATOMS
6690
ITEM: BOX BOUNDS pp pp pp
0.0000000000000000e+00 6.5000000000000000e+01
0.0000000000000000e+00 6.5000000000000000e+01
0.0000000000000000e+00 6.5000000000000000e+01
ITEM: ATOMS id mol type q x y z
981 71 1 -0.1995 2.51084 15.3636 10.2379
982 71 1 -0.076 1.13984 15.5656 10.4213
983 71 1 -0.1995 0.676049 16.1812 11.5876
984 71 1 0.015 3.41806 15.7772 11.2208
987 71 2 0.138 2.85955 14.887 9.33316
988 71 2 0.136 0.439987 15.2466 9.66317
991 71 5 -0.2155 4.75336 15.5794 11.04
993 71 6 0.143 5.09007 15.1315 10.1912
1653 119 1 -0.1995 7.25067 5.12737 14.9278
1654 119 1 -0.076 6.16879 5.8723 15.4061
1655 119 1 -0.1995 5.1217 6.21227 14.5446
1656 119 1 0.015 7.28548 4.7224 13.5881
1657 119 1 0.005 6.23815 5.06526 12.7362
1658 119 1 0.015 5.15626 5.81019 13.2144
1659 119 2 0.138 8.05516 4.86954 15.6014
1661 119 2 0.138 4.28107 6.79277 14.922
1662 119 5 -0.2155 4.12628 6.14697 12.3753
1663 119 5 -0.2155 8.34048 3.9967 13.1243
1664 119 2 0.172 6.26525 4.74996 11.6932
1665 119 6 0.143 9.10197 3.74972 13.7517
1666 119 6 0.143 3.33968 6.68611 12.7144
2479 178 1 -0.1995 5.86388 5.71189 0.412489
2480 178 1 -0.076 6.77448 6.77037 0.479739
2485 178 2 0.138 6.10252 4.77638 0.89754
2486 178 2 0.136 7.70609 6.6493 1.01252
2491 178 6 0.143 3.98732 3.95225 0.111392
2765 198 2 0.138 0.574365 9.03144 11.4765
2766 198 2 0.136 0.670626 7.21377 13.1436
5085 344 1 -0.1805 10.5766 15.7215 9.72207
5086 344 1 -0.034 10.4511 14.6592 10.6327
5087 344 1 -0.1805 9.54285 13.6338 10.3659
5088 344 1 -0.1045 9.80564 15.7369 8.56193
5089 344 1 -0.145 8.89964 14.7031 8.30628
5090 344 1 -0.1045 8.76464 13.654 9.21078
5092 344 2 0.1535 9.43878 12.8065 11.0637
5093 344 2 0.132 8.29441 14.7262 7.39647
5095 344 3 0.2965 7.808 12.54 8.95877
5099 344 4 -0.0955 7.08591 12.4615 7.97804
5221 352 1 -0.262 7.57222 3.53858 5.22914
5222 352 1 -0.073 7.25131 2.1803 5.19312
5223 352 1 -0.262 8.22198 1.26131 4.78099
5224 352 1 -0.073 8.8432 3.98299 4.86006
5225 352 1 -0.262 9.80962 3.05131 4.45893
5226 352 1 -0.073 9.49693 1.6863 4.40923
5227 352 2 0.063 6.81557 4.25682 5.54696
5228 352 2 0.063 7.98092 0.196613 4.75079
5229 352 2 0.063 10.8 3.38576 4.17281
5230 352 3 -0.174 9.15666 5.43997 4.91613
5231 352 3 -0.174 10.5041 0.684505 3.97934
5232 352 3 -0.174 5.88953 1.73535 5.58102
5233 352 4 -0.553 5.50837 0.576381 5.57887
5234 352 4 -0.553 10.2267 5.9252 4.6256
5251 354 1 -0.262 8.8412 16.1072 3.29626
5252 354 1 -0.073 9.40777 14.9603 3.85544
5253 354 1 -0.262 10.1022 14.0707 3.02899
5255 354 1 -0.262 9.66796 15.4772 1.11542
5256 354 1 -0.073 10.2329 14.3176 1.66287
5258 354 2 0.063 10.5501 13.1715 3.45733
5259 354 2 0.063 9.76889 15.6739 0.0544316
5262 354 3 -0.174 9.25704 14.6985 5.3086
5263 354 4 -0.553 9.70796 13.7264 5.89175
5311 358 1 -0.262 5.03097 10.1636 6.68788
5312 358 1 -0.073 5.48135 9.31162 5.67766
5313 358 1 -0.262 5.48091 7.93064 5.90011
5314 358 1 -0.073 4.58424 9.65247 7.90785
5315 358 1 -0.262 4.57928 8.26673 8.11427
5316 358 1 -0.073 5.03791 7.4017 7.11184
5317 358 2 0.063 5.03381 11.2408 6.5174
5318 358 2 0.063 5.83004 7.25605 5.11549
5319 358 2 0.063 4.23214 7.85973 9.05684
5320 358 3 -0.174 4.10291 10.5888 8.9642
5321 358 3 -0.174 5.04828 5.93143 7.31404
5322 358 3 -0.174 5.96047 9.88148 4.39368
5323 358 4 -0.553 6.3777 9.22586 3.45316
5324 358 4 -0.553 3.68951 10.2478 10.0494
5325 358 4 -0.553 4.67814 5.3721 8.33323
5956 401 1 -0.262 3.28644 15.0107 3.70668
5957 401 1 -0.073 2.81564 14.1742 4.72054
5958 401 1 -0.262 2.92002 12.7881 4.56407
5959 401 1 -0.073 3.85546 14.4792 2.54787
5960 401 1 -0.262 3.96344 13.0893 2.40793
5961 401 1 -0.073 3.48584 12.239 3.41405
5962 401 2 0.063 3.20277 16.0915 3.82551
5963 401 2 0.063 2.55584 12.1257 5.35218
5964 401 2 0.063 4.40582 12.6667 1.51333
5965 401 3 -0.174 4.35523 15.3998 1.48632
5966 401 3 -0.174 3.58357 10.764 3.28119
5967 401 3 -0.174 2.20584 14.7648 5.93799
5968 401 4 -0.553 1.76091 14.1234 6.87557
5969 401 4 -0.553 4.87017 15.0414 0.451301
5970 401 4 -0.553 4.06423 10.1878 2.3191
6341 426 3 -0.174 7.57909 0.89141 0.857358
6345 426 4 -0.553 7.20291 0.612647 1.98403
533 39 1 -0.1995 14.7812 6.65201 8.01342
534 39 1 -0.076 15.3185 5.87564 6.98255
535 39 1 -0.1995 15.2154 4.48247 7.0331
536 39 1 0.015 14.1409 6.0352 9.09485
537 39 1 0.005 14.0423 4.64644 9.13768
538 39 1 0.015 14.5796 3.87008 8.10681
539 39 2 0.138 14.866 7.72807 7.96531
540 39 2 0.136 15.8125 6.35146 6.1483
541 39 2 0.138 15.6356 3.88208 6.22747
542 39 5 -0.2155 14.4821 2.50365 8.15002
543 39 5 -0.2155 13.6181 6.79348 10.0981
544 39 2 0.172 13.5438 4.16622 9.97965
545 39 6 0.143 13.6935 7.8071 10.0606
546 39 6 0.143 14.8687 1.93502 7.40731
1023 74 1 -0.1995 17.1892 8.02623 3.27541
1024 74 1 -0.076 18.0112 6.96642 3.66954
1025 74 1 -0.1995 19.1221 6.62065 2.89463
1026 74 1 0.015 17.4782 8.74028 2.10638
1027 74 1 0.005 18.587 8.38941 1.33982
1028 74 1 0.015 19.409 7.3296 1.73395
1029 74 2 0.138 16.333 8.28588 3.88101
1030 74 2 0.136 17.7883 6.41559 4.57137
1031 74 2 0.138 19.7593 5.79417 3.20599
1032 74 5 -0.2155 20.4997 6.98525 0.978888
1033 74 5 -0.2155 16.6761 9.77247 1.72423
1034 74 2 0.172 18.812 8.94535 0.429644
1035 74 6 0.143 15.868 10.0235 2.28856
1036 74 6 0.143 21.0994 6.21911 1.25793
3631 258 2 0.132 15.0883 9.56128 15.4026
3632 258 3 0.2965 16.1518 11.943 16.1884
3636 258 4 -0.0955 16.0116 11.989 14.9807
3637 258 4 -0.0955 14.1156 7.11882 15.5282
3946 277 1 -0.1805 21.1364 5.34216 12.9989
3949 277 1 -0.1045 21.3894 5.42169 11.6313
3952 277 2 0.1535 20.3705 5.97539 13.4335
3955 277 3 0.2965 20.5913 6.37255 10.799
3957 277 12 0.352 21.6261 4.34561 15.2786
3959 277 4 -0.0955 20.7241 6.52655 9.59944
3961 277 7 -0.318 20.6993 5.12905 15.7596
5096 344 12 0.352 11.2722 14.613 11.894
5097 344 4 -0.367 11.1927 13.7158 12.7136
5100 344 7 -0.318 12.0987 15.6074 12.0733
5101 344 9 0.242 12.5461 15.4341 12.9196
5235 352 4 -0.553 11.6446 0.953982 3.63992
5261 354 3 -0.174 10.9784 13.3543 0.814882
5816 391 3 -0.174 19.7431 0.471881 13.9695
5820 391 4 -0.553 18.628 0.760971 14.3714
617 45 1 -0.1995 27.1013 6.59048 7.54244
618 45 1 -0.076 27.1616 5.85367 6.35602
619 45 1 -0.1995 27.335 6.51185 5.13503
620 45 1 0.015 27.2144 7.98547 7.50785
621 45 1 0.005 27.387 8.63369 6.2871
622 45 1 0.015 27.4473 7.89688 5.10069
623 45 2 0.138 26.9671 6.07266 8.48119
624 45 2 0.136 27.0743 4.77753 6.3827
625 45 2 0.138 27.3813 5.93327 4.2135
626 45 5 -0.2155 27.6171 8.53578 3.90008
627 45 5 -0.2155 27.1554 8.70138 8.66491
628 45 2 0.172 27.4751 9.71979 6.26017
629 45 6 0.143 27.0293 8.2218 9.55293
630 45 6 0.143 27.6617 8.00898 3.03701
1180 85 1 0.015 32.2062 10.7859 12.5417
1181 85 1 0.005 31.9139 11.9264 13.2859
1182 85 1 0.015 32.2236 11.9772 14.6481
1186 85 5 -0.2155 31.9356 13.1 15.3794
1187 85 5 -0.2155 31.9052 10.7343 11.2144
1188 85 2 0.172 31.4418 12.7811 12.8013
1189 85 6 0.143 32.1214 9.8984 10.6768
1317 95 1 -0.1995 27.0103 0.549695 4.58404
1320 95 1 0.015 25.9503 0.80984 3.70725
1323 95 2 0.138 27.7329 1.31848 4.81669
1327 95 5 -0.2155 25.824 2.04132 3.13953
1328 95 2 0.172 24.2041 0.00737859 2.73795
1329 95 6 0.143 26.4999 2.77071 3.35313
1887 135 5 -0.2155 30.3596 1.14272 0.9834
1889 135 6 0.143 29.5627 1.66384 0.625756
1984 142 5 -0.2155 30.4063 2.97755 15.1407
1988 142 6 0.143 30.2641 3.85892 14.6639
3537 252 9 0.242 23.8602 15.9611 14.3311
3924 275 4 -0.367 28.4039 15.9119 2.84761
3927 275 7 -0.318 28.7028 16.1979 5.0012
3928 275 9 0.242 28.5979 15.2335 4.92826
3947 277 1 -0.034 21.8746 4.45268 13.7973
3948 277 1 -0.1805 22.8491 3.6491 13.204
3950 277 1 -0.145 22.3689 4.61127 11.0493
3951 277 1 -0.1045 23.0954 3.72131 11.835
3953 277 2 0.1535 23.4267 2.95813 13.8133
3954 277 2 0.132 22.5568 4.6759 9.97456
3956 277 3 0.2965 24.1458 2.84964 11.238
3958 277 4 -0.367 22.2373 3.58571 16.008
3960 277 4 -0.0955 24.4407 2.83964 10.0538
5119 346 1 -0.1805 24.8571 10.0426 1.40645
5120 346 1 -0.034 24.8762 8.81234 0.728484
5122 346 1 -0.1045 24.8801 11.234 0.6848
5125 346 2 0.1535 24.829 10.0803 2.49014
5128 346 3 0.2965 24.8567 12.5322 1.42498
5130 346 12 0.352 24.8546 7.50794 1.4804
5131 346 4 -0.367 24.8645 6.41918 0.935044
5132 346 4 -0.0955 24.8732 13.6307 0.9022
5134 346 7 -0.318 24.8256 7.60047 2.78224
5135 346 9 0.242 24.813 6.68641 3.11517
5748 387 1 -0.262 31.8042 6.63409 0.72985
5750 387 1 -0.262 32.1196 4.39369 1.57216
5751 387 1 -0.073 31.6167 5.69083 1.73952
5753 387 2 0.063 31.42 7.64754 0.863899
5754 387 2 0.063 31.978 3.65799 2.35528
5756 387 3 -0.174 30.8989 6.08053 2.97867
5760 387 4 -0.553 30.6882 5.33204 3.91888
6227 419 1 -0.073 28.0303 15.9336 11.1127
6228 419 1 -0.262 27.7047 15.4623 9.83657
6233 419 2 0.063 27.6803 14.3871 9.64676
6236 419 3 -0.174 27.0728 15.8146 7.45752
6237 419 3 -0.174 28.3336 14.9958 12.2223
6238 419 4 -0.553 28.3295 13.7794 12.1272
88 7 1 0.015 10.3978 3.22132 31.3291
89 7 1 0.005 9.36822 2.3883 31.7608
95 7 5 -0.2155 10.3693 3.759 30.0781
96 7 2 0.172 8.53639 2.16699 31.092
1660 119 2 0.136 6.14193 6.18471 16.4395
2758 197 6 0.143 5.31708 4.02759 31.851
3067 220 1 -0.1995 1.15344 13.3599 18.2149
3068 220 1 -0.076 2.1799 13.5711 17.2898
3069 220 1 -0.1995 3.19131 14.4945 17.5698
3070 220 1 0.015 1.13839 14.0722 19.4201
3071 220 1 0.005 2.1499 14.9905 19.6915
3072 220 1 0.015 3.17637 15.2017 18.7664
3073 220 2 0.138 0.376199 12.6441 17.9894
3074 220 2 0.136 2.19151 13.0217 16.3601
3075 220 2 0.138 3.98879 14.6555 16.8458
3076 220 5 -0.2155 4.17115 16.1056 19.0346
3077 220 5 -0.2155 0.137401 13.8649 20.32
3078 220 2 0.172 2.13819 15.5451 20.6299
4150 289 1 -0.1805 3.41387 11.7407 29.5554
4151 289 1 -0.034 3.4617 11.5367 28.1662
4152 289 1 -0.1805 3.00514 10.3291 27.6364
4153 289 1 -0.1045 2.90421 10.7456 30.3865
4154 289 1 -0.145 2.44959 9.54036 29.8429
4155 289 1 -0.1045 2.50463 9.33009 28.4682
4156 289 2 0.1535 3.76576 12.6683 29.994
4157 289 2 0.1535 3.03687 10.1617 26.5626
4158 289 2 0.132 2.05674 8.76273 30.5029
4159 289 3 0.2965 2.86443 10.9814 31.8618
4160 289 3 0.2965 2.02374 8.05526 27.8656
4161 289 12 0.352 4.00464 12.594 27.2417
4162 289 4 -0.367 4.07028 12.4588 26.0333
4164 289 4 -0.0955 1.56474 7.12215 28.5044
4165 289 7 -0.318 4.41234 13.6954 27.8118
4166 289 9 0.242 4.73069 14.2672 27.0919
4592 315 1 -0.1805 6.74688 12.4658 25.9861
4593 315 1 -0.034 7.12403 13.7684 26.353
4594 315 1 -0.1805 7.44678 14.6924 25.3582
4595 315 1 -0.1045 6.68831 12.1127 24.6398
4596 315 1 -0.145 7.01379 13.0481 23.6529
4597 315 1 -0.1045 7.39785 14.3367 24.0123
4598 315 2 0.1535 6.4947 11.7267 26.7389
4599 315 2 0.1535 7.73891 15.7034 25.6315
4600 315 2 0.132 6.97087 12.7608 22.5993
4601 315 3 0.2965 6.28724 10.7211 24.2706
4602 315 3 0.2965 7.74669 15.3513 22.9787
4603 315 12 0.352 7.19437 14.181 27.7994
4604 315 4 -0.367 7.52107 15.2961 28.1636
4605 315 4 -0.0955 6.20185 10.3013 23.1318
4606 315 4 -0.0955 7.73125 15.1425 21.7764
4607 315 7 -0.318 6.87817 13.2617 28.6707
4608 315 9 0.242 6.97381 13.6776 29.545
4788 326 3 0.2965 8.12078 15.3103 31.3978
4792 326 4 -0.0955 8.34391 15.0566 30.2289
4864 331 1 -0.1805 0.30659 0.807177 25.6859
4867 331 1 -0.1045 0.492371 2.17599 25.5057
4868 331 1 -0.145 0.313914 3.05655 26.577
4870 331 2 0.1535 0.452813 0.13767 24.8451
4872 331 2 0.132 0.467534 4.12841 26.4283
4873 331 3 0.2965 0.896671 2.68317 24.1593
4877 331 4 -0.0955 1.08699 3.85336 23.8857
6363 428 1 -0.262 10.3441 12.0576 31.4624
6365 428 1 -0.262 10.7407 10.2419 29.9215
6366 428 1 -0.073 10.1149 10.7386 31.0727
6368 428 2 0.063 9.86351 12.4421 32.3645
6369 428 2 0.063 10.567 9.21666 29.6161
6371 428 3 -0.174 9.22217 9.88019 31.8905
6375 428 4 -0.553 8.96218 8.7154 31.637
6595 443 3 -0.174 1.76095 15.4327 24.4015
6599 443 4 -0.553 0.760875 14.8468 24.75
85 7 1 -0.1995 11.4662 3.50557 32.188
91 7 2 0.138 12.2725 4.14982 31.8683
97 7 6 0.143 11.1243 4.3665 29.7692
1780 128 1 -0.076 16.3258 6.60537 32.0835
1781 128 1 -0.1995 17.4148 7.35571 31.6307
1784 128 1 0.015 18.6822 7.12896 32.1545
1786 128 2 0.136 15.341 6.78155 31.6765
1787 128 2 0.138 17.2635 8.11705 30.8668
1788 128 5 -0.2155 19.7456 7.86827 31.706
1792 128 6 0.143 19.6176 8.57859 30.9965
2937 210 5 -0.2155 18.3159 16.0083 30.2513
2939 210 6 0.143 18.4832 15.3897 29.4615
3623 258 1 -0.1805 16.0115 10.8472 18.4195
3624 258 1 -0.034 15.6854 9.75529 19.2411
3625 258 1 -0.1805 15.142 8.60554 18.6665
3626 258 1 -0.1045 15.8006 10.7694 17.0447
3627 258 1 -0.145 15.2559 9.61149 16.4814
3628 258 1 -0.1045 14.9219 8.53125 17.293
3629 258 2 0.1535 16.4315 11.7543 18.8404
3630 258 2 0.1535 14.8872 7.75455 19.2934
3633 258 3 0.2965 14.3427 7.28605 16.7156
3634 258 12 0.352 15.9039 9.80797 20.73
3635 258 4 -0.367 15.6314 8.88876 21.4808
3638 258 7 -0.318 16.4154 10.9164 21.1926
3639 258 9 0.242 16.4913 10.7949 22.1548
3793 268 1 -0.1805 20.989 7.06145 23.0727
3794 268 1 -0.034 20.9664 6.84238 24.4602
3795 268 1 -0.1805 20.6965 7.91059 25.3167
3796 268 1 -0.1045 20.7326 8.3335 22.566
3797 268 1 -0.145 20.4631 9.39515 23.435
3798 268 1 -0.1045 20.4499 9.18476 24.8107
3799 268 2 0.1535 21.1999 6.24986 22.3847
3800 268 2 0.1535 20.6757 7.75141 26.392
3801 268 2 0.132 20.2689 10.3912 23.0291
3802 268 3 0.2965 20.7639 8.54609 21.0869
3803 268 3 0.2965 20.1626 10.2997 25.7561
3804 268 12 0.352 21.237 5.47854 25.0382
3805 268 4 -0.367 21.2333 5.24369 26.233
3806 268 4 -0.0955 20.5567 9.60942 20.533
3807 268 4 -0.0955 19.9301 11.4483 25.4155
3808 268 7 -0.318 21.4813 4.53109 24.174
3809 268 9 0.242 21.635 3.72521 24.6969
3962 277 9 0.242 20.659 4.94165 16.7134
5850 393 4 -0.553 17.1736 9.96497 31.703
6361 428 1 -0.262 11.7922 12.3875 29.5641
6362 428 1 -0.073 11.1821 12.8913 30.7144
6364 428 1 -0.073 11.5742 11.0697 29.1579
6367 428 2 0.063 12.4431 13.0371 28.9779
6370 428 3 -0.174 12.2462 10.5597 27.928
6372 428 3 -0.174 11.4227 14.299 31.1186
6373 428 4 -0.553 10.9348 14.835 32.1
6374 428 4 -0.553 12.1297 9.4349 27.4965
1190 85 6 0.143 32.1569 13.144 16.366
1471 106 1 -0.1995 31.3083 7.22537 27.4896
1472 106 1 -0.076 32.0107 6.64368 26.4303
1474 106 1 0.015 31.8968 8.24776 28.2436
1477 106 2 0.138 30.311 6.87791 27.718
1478 106 2 0.136 31.5567 5.85498 25.8487
1481 106 5 -0.2155 31.2107 8.8131 29.2753
1483 106 6 0.143 30.2714 8.49194 29.4969
1976 142 1 -0.076 32.4475 4.02787 17.9979
1977 142 1 -0.1995 31.697 4.08036 16.8197
1978 142 1 0.015 32.0782 1.63572 18.1215
1979 142 1 0.005 31.3317 1.69656 16.9471
1980 142 1 0.015 31.1411 2.91888 16.2962
1983 142 2 0.138 31.5514 5.03511 16.3163
1985 142 5 -0.2155 32.2651 0.445911 18.7573
1986 142 2 0.172 30.8957 0.785766 16.5366
2919 209 2 0.138 32.205 15.262 21.2293
3193 229 1 -0.1995 28.3661 14.3347 30.3734
3194 229 1 -0.076 28.7956 14.1198 31.6862
3196 229 1 0.015 27.19 15.0539 30.1294
3197 229 1 0.005 26.4517 15.553 31.2
3199 229 2 0.138 28.95 13.941 29.554
3200 229 2 0.136 29.7029 13.565 31.8744
3203 229 5 -0.2155 26.7733 15.2622 28.8496
3204 229 2 0.172 25.536 16.1129 31.01
3205 229 6 0.143 27.3171 14.895 28.0725
3533 252 4 -0.367 24.4089 15.2921 16.3506
4235 294 1 -0.1805 25.3366 10.2485 30.7708
4236 294 1 -0.034 25.9562 10.3723 29.5161
4237 294 1 -0.1805 25.7656 11.5371 28.7715
4238 294 1 -0.1045 24.5505 11.2879 31.2631
4239 294 1 -0.145 24.3679 12.4499 30.5072
4240 294 1 -0.1045 24.9715 12.5725 29.2591
4241 294 2 0.1535 25.4647 9.35246 31.3686
4242 294 2 0.1535 26.2415 11.6433 27.7997
4243 294 2 0.132 23.7447 13.258 30.8985
4245 294 3 0.2965 24.7938 13.802 28.4367
4246 294 12 0.352 26.8137 9.26748 28.9581
4247 294 4 -0.367 27.3651 9.32881 27.8741
4249 294 4 -0.0955 24.1241 14.7648 28.7741
4250 294 7 -0.318 26.9441 8.21027 29.7128
4251 294 9 0.242 27.5161 7.5978 29.2186
4303 298 1 -0.1805 31.2274 9.92393 21.1678
4304 298 1 -0.034 31.3127 8.70913 20.4674
4305 298 1 -0.1805 31.029 8.68634 19.1012
4306 298 1 -0.1045 30.8728 11.0907 20.4944
4307 298 1 -0.145 30.5914 11.0543 19.1253
4308 298 1 -0.1045 30.6647 9.85108 18.4296
4309 298 2 0.1535 31.4388 9.96929 22.2308
4310 298 2 0.1535 31.0931 7.75151 18.5497
4311 298 2 0.132 30.3082 11.9734 18.6061
4312 298 3 0.2965 30.7852 12.3723 21.2584
4313 298 3 0.2965 30.3721 9.78789 16.9702
4314 298 12 0.352 31.6958 7.43179 21.1666
4315 298 4 -0.367 31.7769 6.35615 20.6016
4316 298 4 -0.0955 30.486 13.4491 20.7775
4317 298 4 -0.0955 30.0497 10.749 16.2906
4318 298 7 -0.318 31.9459 7.53365 22.4439
4319 298 9 0.242 32.1728 6.6366 22.7444
4371 302 1 -0.1805 25.9697 6.09832 21.0944
4372 302 1 -0.034 26.2225 7.21887 20.2857
4373 302 1 -0.1805 25.9746 7.14223 18.9145
4374 302 1 -0.1045 25.4666 4.93038 20.5257
4375 302 1 -0.145 25.2222 4.86686 19.1506
4376 302 1 -0.1045 25.4809 5.97128 18.3441
4377 302 2 0.1535 26.157 6.12931 22.1624
4378 302 2 0.1535 26.166 8.00418 18.28
4379 302 2 0.132 24.833 3.94457 18.7118
4380 302 3 0.2965 25.2068 3.74866 21.4031
4381 302 3 0.2965 25.2261 5.92831 16.8769
4382 302 12 0.352 26.7639 8.49613 20.8712
4383 302 4 -0.367 27.0029 9.48934 20.2084
4384 302 4 -0.0955 24.77 2.68014 21.0186
4385 302 4 -0.0955 24.7915 4.95535 16.2819
4386 302 7 -0.318 26.9699 8.49027 22.1603
4387 302 9 0.242 27.3161 9.37257 22.3799
5821 392 1 -0.262 26.378 3.34242 27.2584
5822 392 1 -0.073 25.5831 3.76294 26.1905
5823 392 1 -0.262 24.3681 3.11349 25.948
5824 392 1 -0.073 25.9734 2.28785 28.079
5825 392 1 -0.262 24.7495 1.6524 27.8317
5826 392 1 -0.073 23.9472 2.05872 26.7571
5827 392 2 0.063 27.3271 3.84543 27.4469
5828 392 2 0.063 23.7388 3.43608 25.1159
5829 392 2 0.063 24.4252 0.834349 28.4643
5830 392 3 -0.174 26.8421 1.86711 29.2159
5831 392 3 -0.174 22.6514 1.39312 26.4736
5832 392 3 -0.174 26.0412 4.88004 25.3273
5833 392 4 -0.553 25.4255 5.31788 24.3694
5834 392 4 -0.553 26.5797 0.972707 29.988
5835 392 4 -0.553 22.1942 0.467108 27.1232
5926 399 1 -0.262 32.2724 1.99696 24.1287
5929 399 1 -0.073 31.3185 2.41463 25.0587
5930 399 1 -0.262 30.9383 1.54874 26.0924
5931 399 1 -0.073 31.5255 0.281317 26.2039
5934 399 2 0.063 30.1969 1.86246 26.818
5935 399 3 -0.174 30.707 3.76836 24.9259
5939 399 4 -0.553 29.8687 4.22091 25.6724
6252 420 3 -0.174 24.9827 6.19182 32.085
6253 420 4 -0.553 25.6641 5.47657 31.369
6461 434 3 -0.174 29.306 16.2085 23.4843
6465 434 4 -0.553 29.6173 15.662 22.4388
87 7 1 -0.1995 10.4602 2.11971 33.8979
90 7 1 0.015 9.39946 1.83749 33.0452
93 7 2 0.138 10.4892 1.69307 34.8996
94 7 5 -0.2155 8.38587 1.01795 33.4688
98 7 6 0.143 8.40165 0.615524 34.3974
1866 134 1 0.015 1.21901 1.24459 46.1347
1867 134 1 0.005 2.25011 1.5518 47.0194
1868 134 1 0.015 2.01084 1.58336 48.3963
1873 134 5 -0.2155 1.44994 1.21329 44.7929
1874 134 2 0.172 3.2463 1.76796 46.6334
1875 134 6 0.143 0.69257 0.988236 44.1524
2174 156 1 0.015 4.27417 15.7538 46.4309
2177 156 2 0.138 5.99848 16.1363 45.1868
2181 156 5 -0.2155 4.5124 14.4168 46.5338
2182 156 2 0.172 2.49868 15.6935 47.646
2183 156 6 0.143 5.31874 14.0074 46.0683
2493 179 1 -0.1995 10.6615 15.4269 46.8021
2499 179 2 0.138 9.98391 14.5929 46.6891
2745 197 1 -0.1995 7.65531 3.97219 35.9928
2746 197 1 -0.076 7.46567 5.00249 35.0673
2747 197 1 -0.1995 6.72694 4.76708 33.9041
2748 197 1 0.015 7.10622 2.70648 35.7552
2749 197 1 0.005 6.37141 2.4801 34.5937
2750 197 1 0.015 6.18177 3.5104 33.6682
2751 197 2 0.138 8.22779 4.16396 36.8888
2752 197 2 0.136 7.88926 5.9789 35.2506
2753 197 2 0.138 6.58205 5.57308 33.1861
2754 197 5 -0.2155 5.45856 3.2865 32.5256
2755 197 5 -0.2155 7.29219 1.70411 36.6582
2756 197 2 0.172 5.9439 1.49466 34.4087
2757 197 6 0.143 7.8298 1.87614 37.5043
3221 231 1 -0.1995 7.00109 1.49893 45.8041
3222 231 1 -0.076 7.57703 2.66766 45.2977
3223 231 1 -0.1995 8.94432 2.70219 45.0089
3224 231 1 0.015 7.79244 0.364719 46.0217
3225 231 1 0.005 9.15408 0.407348 45.7313
3226 231 1 0.015 9.73002 1.57608 45.2249
3227 231 2 0.138 5.94342 1.4821 46.0243
3228 231 2 0.136 6.96656 3.54262 45.1299
3229 231 2 0.138 9.38824 3.61515 44.6145
3389 243 1 -0.1995 6.59346 9.41714 48.3202
3390 243 1 -0.076 7.60388 10.2864 47.8987
3391 243 1 -0.1995 7.39969 11.6684 47.9482
3394 243 1 0.015 6.19374 12.1775 48.4157
3395 243 2 0.138 6.7608 8.35055 48.2781
3396 243 2 0.136 8.54087 9.89078 47.5355
3397 243 2 0.138 8.19002 12.3414 47.6187
3398 243 5 -0.2155 6.00024 13.5336 48.4615
3402 243 6 0.143 6.7272 14.1691 48.1581
3879 273 1 -0.034 0.616997 7.30894 35.0682
3880 273 1 -0.1805 0.77478 8.58471 34.5251
3885 273 2 0.1535 1.55505 9.24161 34.9017
3888 273 3 0.2965 0.138152 10.4013 32.9501
3889 273 12 0.352 1.53946 6.85139 36.1669
3890 273 4 -0.367 2.43371 7.54106 36.6225
3893 273 7 -0.318 1.32939 5.64644 36.6231
3894 273 9 0.242 1.99771 5.5022 37.3153
4163 289 4 -0.0955 2.44278 10.1871 32.6815
4785 326 2 0.1535 7.6567 15.9547 33.9505
5177 349 2 0.1535 1.8298 9.14821 48.682
5180 349 3 0.2965 1.77694 11.6452 47.721
5184 349 4 -0.0955 1.76549 12.8014 47.3305
6295 423 3 -0.174 7.70877 0.144801 40.5834
6299 423 4 -0.553 7.60895 1.2233 40.0433
6419 431 4 -0.553 1.7546 15.903 39.5561
6436 433 1 -0.262 4.34424 13.4388 36.8268
6437 433 1 -0.073 4.36848 14.7857 37.1934
6438 433 1 -0.262 4.29158 15.7647 36.1973
6439 433 1 -0.073 4.24493 13.0646 35.4854
6440 433 1 -0.262 4.1583 14.0549 34.4982
6441 433 1 -0.073 4.19136 15.4102 34.8525
6442 433 2 0.063 4.40753 12.6741 37.6019
6444 433 2 0.063 4.07842 13.7749 33.4542
6445 433 3 -0.174 4.21455 11.6172 35.1272
6447 433 3 -0.174 4.48482 15.1565 38.6258
6449 433 4 -0.553 4.12302 11.1895 33.9986
86 7 1 -0.076 11.4974 2.95477 33.4724
92 7 2 0.136 12.3216 3.17405 34.135
1093 79 1 -0.1995 13.1244 12.2014 38.8227
1094 79 1 -0.076 12.2689 12.1902 39.9283
1095 79 1 -0.1995 11.8964 13.394 40.5333
1096 79 1 0.015 13.6073 13.4164 38.3223
1097 79 1 0.005 13.2313 14.6116 38.9309
1098 79 1 0.015 12.3759 14.6004 40.0365
1099 79 2 0.138 13.4065 11.2657 38.362
1100 79 2 0.136 11.8964 11.2529 40.3144
1101 79 2 0.138 11.2297 13.3799 41.3944
1102 79 5 -0.2155 12.0066 15.777 40.6345
1103 79 5 -0.2155 14.4406 13.425 37.2451
1104 79 2 0.172 13.6073 15.5576 38.5413
1105 79 6 0.143 14.7112 12.5487 36.8054
1106 79 6 0.143 11.3876 15.7767 41.4353
1527 110 1 -0.1995 14.4795 8.09571 45.4219
1528 110 1 -0.076 15.8156 8.15469 45.8284
1529 110 1 -0.1995 16.5681 6.9803 45.9216
1530 110 1 0.015 13.8957 6.86236 45.1087
1531 110 1 0.005 14.6524 5.69678 45.2042
1532 110 1 0.015 15.9886 5.75575 45.6106
1533 110 2 0.138 13.9061 9.0089 45.3529
1534 110 2 0.136 16.2659 9.10613 46.07
1535 110 2 0.138 17.6088 7.03158 46.2387
1536 110 5 -0.2155 16.7321 4.60821 45.7042
1537 110 5 -0.2155 12.5938 6.80717 44.7129
1538 110 2 0.172 14.1979 4.73652 44.9603
1539 110 6 0.143 12.0469 7.66207 44.6453
1540 110 6 0.143 17.7001 4.64309 45.9978
1779 128 1 -0.1995 16.5132 5.62664 33.0638
1782 128 1 0.015 17.7898 5.39826 33.5914
1783 128 1 0.005 18.8697 6.15023 33.1348
1785 128 2 0.138 15.6652 5.05189 33.4073
1789 128 5 -0.2155 17.9702 4.44423 34.5464
1790 128 2 0.172 19.8636 5.97241 33.5456
1791 128 6 0.143 17.1773 3.89867 34.8754
2494 179 1 -0.076 11.1744 16.0524 45.662
2496 179 1 0.015 11.0262 15.8814 48.075
2500 179 2 0.136 10.8931 15.7018 44.68
2672 191 2 0.172 18.1785 15.6036 40.648
2675 192 1 -0.1995 15.5041 10.9156 40.9835
2676 192 1 -0.076 16.0843 10.2894 39.8765
2677 192 1 -0.1995 17.4477 10.4561 39.6168
2678 192 1 0.015 16.2874 11.7084 41.8308
2679 192 1 0.005 17.6452 11.8694 41.5651
2680 192 1 0.015 18.2254 11.2432 40.4581
2681 192 2 0.138 14.4495 10.7807 41.1758
2682 192 2 0.136 15.48 9.67782 39.2229
2683 192 2 0.138 17.8949 9.96612 38.7531
2684 192 5 -0.2155 19.5615 11.4024 40.1976
2685 192 5 -0.2155 15.7201 12.3176 42.9088
2686 192 2 0.172 18.255 12.4867 42.2248
2687 192 6 0.143 14.7281 12.1959 43.0971
2688 192 6 0.143 19.9885 10.9521 39.398
2787 200 1 -0.1995 21.342 0.175986 41.7634
2790 200 1 0.015 20.0405 0.487254 41.352
2791 200 1 0.005 19.7761 1.72942 40.7799
2792 200 1 0.015 20.804 2.66253 40.6161
2796 200 5 -0.2155 20.5428 3.88447 40.053
2798 200 2 0.172 18.7628 1.97176 40.4596
2800 200 6 0.143 21.2819 4.56512 39.9312
3230 231 5 -0.2155 11.0699 1.61687 44.9395
3234 231 6 0.143 11.4939 2.45949 44.5726
3831 270 1 -0.145 13.1848 13.009 47.9575
3832 270 1 -0.1045 11.948 12.5652 48.4164
3835 270 2 0.132 13.5362 12.7252 46.9622
3836 270 3 0.2965 15.3045 14.3227 48.2822
3837 270 3 0.2965 11.0842 11.691 47.5743
3840 270 4 -0.0955 15.7903 14.0624 47.1975
3841 270 4 -0.0955 11.3758 11.3111 46.4518
5836 393 1 -0.262 17.5286 7.89754 36.3279
5837 393 1 -0.073 16.1807 8.1255 36.0443
5838 393 1 -0.262 15.8295 8.69613 34.8165
5839 393 1 -0.073 18.5201 8.23191 35.4036
5840 393 1 -0.262 18.1544 8.79343 34.1733
5841 393 1 -0.073 16.8057 9.03614 33.8807
5842 393 2 0.063 17.8045 7.45584 37.2861
5843 393 2 0.063 14.7777 8.87705 34.585
5844 393 2 0.063 18.9163 9.05428 33.4479
5845 393 3 -0.174 19.9505 7.96929 35.7339
5846 393 3 -0.174 16.3984 9.63762 32.5864
5847 393 3 -0.174 15.1472 7.77006 37.0485
5848 393 4 -0.553 13.9471 7.93334 36.9008
5849 393 4 -0.553 20.8821 8.21438 35.0011
1166 84 1 0.015 29.8513 15.8191 48.5081
1173 84 5 -0.2155 28.7819 15.7223 47.6703
1175 84 6 0.143 28.3975 14.809 47.441
1233 89 1 -0.1995 26.2789 4.27645 45.528
1234 89 1 -0.076 27.3568 4.21415 46.416
1235 89 1 -0.1995 27.9885 5.39087 46.8287
1236 89 1 0.015 25.8328 5.51546 45.0529
1237 89 1 0.005 26.4677 6.68333 45.469
1238 89 1 0.015 27.5456 6.62103 46.3569
1239 89 2 0.138 25.7972 3.36142 45.2149
1240 89 2 0.136 27.701 3.25834 46.7825
1241 89 2 0.138 28.8279 5.33699 47.5206
1242 89 5 -0.2155 28.1695 7.77084 46.7657
1243 89 5 -0.2155 24.7825 5.57387 44.1879
1244 89 2 0.172 26.1203 7.64799 45.099
1245 89 6 0.143 24.3233 4.71727 43.888
1246 89 6 0.143 28.9505 7.73358 47.4084
1569 113 1 -0.1995 31.5828 0.0196059 40.4151
1572 113 1 0.015 30.5614 0.937216 40.1415
1573 113 1 0.005 30.189 1.1819 38.8218
1574 113 1 0.015 30.8305 0.515537 37.7737
1578 113 5 -0.2155 30.4632 0.757102 36.4756
1579 113 5 -0.2155 29.9377 1.58533 41.1641
1580 113 2 0.172 29.3938 1.89633 38.6088
1581 113 6 0.143 30.2146 1.40201 42.1255
1582 113 6 0.143 30.9231 0.27843 35.7116
2788 200 1 -0.076 22.3699 1.1091 41.5996
2789 200 1 -0.1995 22.0962 2.35349 41.0245
2794 200 2 0.136 23.3739 0.868981 41.9169
2795 200 2 0.138 22.9005 3.07701 40.8991
3195 229 1 -0.1995 28.0489 14.624 32.755
3198 229 1 0.015 26.8812 15.338 32.5128
3201 229 2 0.138 28.3878 14.4538 33.776
3202 229 5 -0.2155 26.154 15.8296 33.5654
3206 229 6 0.143 26.4587 15.6779 34.5186
3472 248 6 0.143 27.9947 0.0152998 33.2527
3681 261 2 0.1535 32.0566 12.4924 44.0151
3685 261 12 0.352 31.7511 12.6025 41.3302
3686 261 4 -0.367 30.8031 12.0144 41.8185
3689 261 7 -0.318 31.8282 12.7862 40.0401
3690 261 9 0.242 31.0317 12.3738 39.6631
3861 272 1 -0.1805 25.8353 14.1866 40.528
3862 272 1 -0.034 26.3136 15.3044 39.8241
3863 272 1 -0.1805 27.5954 15.7854 40.0945
3864 272 1 -0.1045 26.6439 13.565 41.4769
3865 272 1 -0.145 27.9265 14.0567 41.738
3866 272 1 -0.1045 28.4004 15.1701 41.0503
3867 272 2 0.1535 24.8415 13.7945 40.3405
3869 272 2 0.132 28.552 13.5665 42.4883
3870 272 3 0.2965 26.1154 12.3788 42.2166
3871 272 3 0.2965 29.7643 15.7105 41.3094
3872 272 12 0.352 25.4644 15.9964 38.791
3874 272 4 -0.0955 26.7293 11.7581 43.0641
3875 272 4 -0.0955 30.5473 15.243 42.1204
3876 272 7 -0.318 24.2781 15.4882 38.5944
3877 272 9 0.242 23.8608 16.0399 37.9103
4244 294 3 0.2965 23.898 11.1353 32.599
4248 294 4 -0.0955 23.1921 11.9735 33.1276
4858 330 12 0.352 31.6414 15.432 36.6546
4859 330 4 -0.367 31.3547 14.8194 35.642
4862 330 7 -0.318 31.738 14.8154 37.8012
4863 330 9 0.242 31.5397 13.8804 37.6197
5344 360 1 -0.073 23.9805 6.93035 48.407
5345 360 1 -0.262 25.0398 7.71348 47.9301
5346 360 1 -0.073 25.1591 9.05379 48.3211
5349 360 2 0.063 25.779 7.28028 47.2663
5350 360 3 -0.174 23.839 5.50134 48.0044
5351 360 3 -0.174 26.2783 9.89769 47.8334
5354 360 4 -0.553 24.5991 4.91589 47.2666
5355 360 4 -0.553 27.1596 9.50996 47.084
6241 420 1 -0.262 24.5528 7.56182 34.121
6242 420 1 -0.073 25.4198 6.74738 33.3901
6243 420 1 -0.262 26.6937 6.47707 33.9005
6244 420 1 -0.073 24.944 8.10402 35.3465
6245 420 1 -0.262 26.2189 7.81728 35.8516
6246 420 1 -0.073 27.1019 7.00917 35.123
6247 420 2 0.063 23.5604 7.77637 33.7229
6248 420 2 0.063 27.3786 5.84001 33.3368
6249 420 2 0.063 26.5314 8.23124 36.8033
6250 420 3 -0.174 23.9919 8.9646 36.1062
6251 420 3 -0.174 28.4596 6.70033 35.6369
6254 420 4 -0.553 24.2301 9.47471 37.1776
6255 420 4 -0.553 28.9078 7.11253 36.6942
329 24 2 0.138 0.865956 15.5546 57.4194
515 37 5 -0.2155 4.16563 0.770241 56.0751
517 37 6 0.143 4.18268 1.35663 56.906
1865 134 1 -0.1995 0.740468 1.3077 48.8885
1871 134 2 0.138 0.548922 1.33098 49.9604
1872 134 5 -0.2155 3.02617 1.88577 49.2658
1876 134 6 0.143 2.86046 1.91052 50.264
2481 178 1 -0.1995 6.47745 7.98579 64.8563
2482 178 1 0.015 4.65625 5.86883 64.7218
2483 178 1 0.005 4.36784 7.08313 64.1034
2484 178 1 0.015 5.27845 8.14161 64.1706
2487 178 2 0.138 7.19021 8.80739 64.9116
2488 178 5 -0.2155 4.99359 9.33599 63.5617
2489 178 5 -0.2155 3.77051 4.83629 64.6576
2490 178 2 0.172 3.42762 7.20532 63.5657
2492 178 6 0.143 5.64801 10.1068 63.6061
2503 179 5 -0.2155 10.5253 15.2705 49.1845
2505 179 6 0.143 9.88686 14.4848 49.087
3251 233 1 -0.1995 10.382 0.645157 51.5697
3257 233 2 0.138 9.43341 0.8179 51.0634
3392 243 1 0.015 5.37884 9.92994 48.7911
3393 243 1 0.005 5.18332 11.3083 48.8372
3399 243 5 -0.2155 4.39576 9.0813 49.2011
3400 243 2 0.172 4.23765 11.7075 49.2038
3401 243 6 0.143 4.54505 8.07587 49.1649
3759 266 1 -0.1805 10.7551 10.7659 60.6712
3760 266 1 -0.034 10.0657 10.0903 59.6505
3761 266 1 -0.1805 10.1414 10.5688 58.3417
3765 266 2 0.1535 10.7103 10.4178 61.6976
3766 266 2 0.1535 9.61245 10.0525 57.5443
3770 266 12 0.352 9.24085 8.86567 59.9458
3771 266 4 -0.367 8.62295 8.25195 59.0946
3774 266 7 -0.318 9.21909 8.47974 61.1927
3775 266 9 0.242 8.65101 7.69036 61.2185
3834 270 2 0.1535 10.5482 12.5735 50.0432
3839 270 4 -0.367 10.7203 13.7662 52.3175
5170 349 1 -0.1805 2.4 10.4309 51.7839
5171 349 1 -0.034 2.19241 9.46852 50.7817
5172 349 1 -0.1805 1.99033 9.88508 49.4652
5173 349 1 -0.1045 2.41289 11.7846 51.4552
5174 349 1 -0.145 2.20956 12.1886 50.1322
5175 349 1 -0.1045 1.99332 11.239 49.1379
5176 349 2 0.1535 2.55571 10.1349 52.8158
5178 349 2 0.132 2.21536 13.2531 49.8842
5179 349 3 0.2965 2.63283 12.7926 52.5365
5181 349 12 0.352 2.17545 7.99801 51.1051